date Fri Nov 28 08:05:58 PM CET 2025
master hostname valdubon
master system Linux valdubon 6.4.0-150600.23.73-default #1 SMP PREEMPT_DYNAMIC Tue Oct 7 08:43:02 UTC 2025 (46f6a23) x86_64 x86_64 x86_64 GNU/Linux
user felipe
output data in /home/felipe/Wide-Band-Gap/Ga2O3/18_HF/OCTA/GaO_OCTA_18HF_BAND_ERRATUM_DEF.outp
mpirun executable in /home/felipe/openmpi-4.1.5/bin
file machines.LINUX in /home/felipe/CRYSTAL23/utils23
list of nodes in /home/felipe/CRYSTAL23/utils23/nodes.par
creating temporary directories /home/felipe/tmp/tmp_p170810_felipe on each node
copying input file on each node
scf guess from /home/felipe/Wide-Band-Gap/Ga2O3/18_HF/OCTA/GaO_OCTA_18HF.f9
copying Pproperties executable on each node
properties input data in /home/felipe/Wide-Band-Gap/Ga2O3/18_HF/OCTA/GaO_OCTA_18HF_BAND_ERRATUM_DEF.d3
NEWK
2 2
1 0
BAND
Ga2O3
15 120 112 979 1381  1 1
-38   82    0   -60   60    0   ! X1 -> Y
-60   60    0     0    0    0   ! Y  -> Γ
  0    0    0     0   60    0   ! Γ  -> N
  0   60    0    38   38    0   ! N  -> X
 38   38    0     0    0    0   ! X  -> Γ
  0    0    0     0   60   60   ! Γ  -> M
  0   60   60   -36   84   60   ! M  -> I
-36   84   60   -60   60   60   ! I  -> L
-60   60   60   -64   64   35   ! L  -> F
-64   64   35   -60   60    0   ! F  -> Y
-60   60    0     0    0    0   ! Y  -> Γ
  0    0    0     0    0   60   ! Γ  -> Z
  0    0   60   -56   56   85   ! Z  -> F1
-56   56   85     0    0   60   ! F1 -> Z
  0    0   60    36   36   60   ! Z  -> I1
END
copying input file on each node
wave function formatted data from /home/felipe/Wide-Band-Gap/Ga2O3/18_HF/OCTA/GaO_OCTA_18HF.f98
          64 PROCESSORS WORKING

         
 *******************************************************************************
 *                                                                             *
 *                               CRYSTAL23                                     *
 *                      public : 1.0.1 - October 2022                          *
 *                       HTTP://WWW.CRYSTAL.UNITO.IT                           *
 *                                                                             *
 *                              MAIN AUTHORS                                   *
 *                                                                             *
 *  R. DOVESI(1,11), V.R. SAUNDERS(2), C. ROETTI(1,11), R. ORLANDO(1,11),      *
 *  C.M. ZICOVICH-WILSON(1,3), F. PASCALE(4), B. CIVALLERI(1,11),              *
 *  K. DOLL(5), N.M. HARRISON(6), I.J. BUSH(7), Ph. D'ARCO(8),                 *
 *  M. LLUNELL(9), M. CAUSA'(10), Y. NOEL(8), L. MASCHIO(1,11), A. ERBA(1,11)  *
 *  M. RE'RAT(14), S. CASASSA(1,11), B.G. SEARLE(2), J.K. DESMARAIS(1)         *
 *                                                                             *
 *        CONTRIBUTIONS TO THE CODE HAVE ALSO BEEN GIVEN BY                    *
 *                                                                             *
 *  M. FERRABONE(1,11), M. DE LA PIERRE(1,11), M. FERRERO(1,11),               *
 *  J. BAIMA(1,11), E. ALBANESE(1,11), M.F. PEINTINGER(12), R. BAST(13),       *
 *  B. KIRTMAN(15), V. LACIVITA(1,11), R. DEMICHELIS(1,16)                     *
 *  G. BRANDEBURG(17), S. SALUSTRO(1,11), G. SANSONE(1,11)                     *
 *  M.T. RUGGIERO(18), L.E. DAGA(1), L. DONA'(1), A. COSSARD(1)                *
 *                                                                             *
 * (1) THEORETICAL CHEMISTRY GROUP - UNIVERSITA' DI TORINO - TORINO (ITALY)    *
 * (2) SCIENTIFIC COMPUTING DEPARTMENT - STFC DARESBURY (UK)                   *
 * (3) UNIVERSIDAD AUTONOMA DEL ESTADO DE MORELOS - CUERNAVACA (MEXICO)        *
 * (4) UNIVERSITE' DE LORRAINE - NANCY (FRANCE)                                *
 * (5) UNIVERSITAET STUTTGART- STUTTGART (GERMANY)                             *
 * (6) IMPERIAL COLLEGE - LONDON (UK)                                          *
 * (7) SCIENTIFIC COMPUTING DEPARTMENT - STFC RAL (UK)                         *
 * (8) UPMC - SORBONNE UNIVERSITES - PARIS (FRANCE)                            *
 * (9) UNIVERSIDAD DE BARCELONA - BARCELONA (SPAIN)                            *
 *(10) UNIVERSITA' DI NAPOLI "FEDERICO II" - NAPOLI (ITALY)                    *
 *(11) NIS - NANOSTRUCTURED INTERFACES AND SURFACES - TORINO (ITALY)           *
 *(12) MPI FUER CHEMISCHE ENERGIEKONVERSION - MUELHEIM AN DER RUHR (GERMANY)   *
 *(13) UNIVERSITY OF TROMSO - TROMSO (NORWAY)                                  *
 *(14) UNIVERSITE' DE PAU ET DES PAYS DE L'ADOUR - PAU (FRANCE)                *
 *(15) UNIVERSITY OF CALIFORNIA SANTA BARBARA - SANTA BARBARA (USA)            *
 *(16) CURTIN UNIVERSITY - PERTH (AUSTRALIA)                                   *
 *(17) UNIVERSITY COLLEGE LONDON - LONDON (UK)                                 *
 *(18) UNIVERSITY OF VERMONT - BURLINGTON (USA)                                *
 *                                                                             *
 *******************************************************************************
 EEEEEEEEEE STARTING  DATE 28 11 2025 TIME 20:06:04.6
 INFORMATION **** SET_MPP **** PCRYSTAL CALCULATION

 *******************************************************************************
 β-Ga₂O₃  2×2×2 super-cell  –  neutral VGa(oct)  –  HSE06  –  spin p
 CRYSTAL - PROPERTIES - TYPE OF CALCULATION :  UNRESTRICTED OPEN SHELL
 *******************************************************************************
 SPIN POLARIZED SYSTEM: SUMMED SPIN DENSITY    3.00000000

 KOHN-SHAM HAMILTONIAN

 (EXCHANGE)[CORRELATION] FUNCTIONAL:(HSE06 SR/GGA)[PERDEW-BURKE-ERNZERHOF]

 RANGE-SEPARATED HYBRID FUNCTIONAL 
 OMEGA (SHORT-RANGE)[LONG-RANGE]:(    0.1100)[    0.0000]

 HYBRID EXCHANGE - PERCENTAGE OF FOCK EXCHANGE    18.0000

 SPIN POLARIZED DFT SELECTED

 DIRECT LATTICE VECTOR COMPONENTS (ANGSTROM)
        24.59489   -0.02174    0.00000
         0.00000    6.12447    0.00000
        -2.76439   -0.02169   11.35180

 LATTICE PARAMETERS  (ANGSTROM AND DEGREES) - PRIMITIVE CELL
       A          B          C         ALPHA      BETA     GAMMA        VOLUME
   24.59490    6.12447   11.68356     90.1064  103.6861   90.0506    1709.92894
 *******************************************************************************
 N. OF ATOMS PER CELL       160 COULOMB OVERLAP TOL          (T1) 10**   -7
 NUMBER OF SHELLS          1728 COULOMB PENETRATION TOL      (T2) 10**   -7
 NUMBER OF AO              4352 EXCHANGE OVERLAP TOL         (T3) 10**   -7
 N. OF ELECTRONS PER CELL  2721 EXCHANGE PSEUDO OVP (F(G))   (T4) 10**   -7
 CORE ELECTRONS PER CELL   1956 EXCHANGE PSEUDO OVP (P(G))   (T5) 10**  -14
 N. OF SYMMETRY OPERATORS     1 POLE ORDER IN MONO ZONE                   4
 *******************************************************************************
   ATOM N.AT.  SHELL    X(A)      Y(A)      Z(A)      EXAD       N.ELECT.
 *******************************************************************************
    1   31 GA   15    -4.791    -1.520    -1.183   2.831E-01      29.281
    2   31 GA   15    -6.151    -1.511     4.509   2.831E-01      29.277
    3   31 GA   15    -4.694     1.539    -1.204   2.831E-01      29.276
    4   31 GA   15    -6.142     1.546     4.503   2.831E-01      29.271
    5   31 GA   15     7.551    -1.541    -1.147   2.831E-01      29.271
    6   31 GA   15     6.180    -1.553     4.528   2.831E-01      29.270
    7   31 GA   15     7.552     1.521    -1.148   2.831E-01      29.272
    8   31 GA   15     6.179     1.510     4.529   2.831E-01      29.270
    9   31 GA   15     1.363    -0.004    -1.139   2.831E-01      29.304
   10   31 GA   15     0.041    -0.009     4.535   2.831E-01      29.281
   11   31 GA   15     1.349     2.983    -1.148   2.831E-01      29.317
   12   31 GA   15     0.034     3.051     4.546   2.831E-01      29.277
   13   31 GA   15   -10.901     0.014    -1.167   2.831E-01      29.270
   14   31 GA   15    -9.506     0.025    -6.839   2.831E-01      29.270
   15   31 GA   15   -10.903    -3.048    -1.167   2.831E-01      29.270
   16   31 GA   15    -9.504    -3.038    -6.840   2.831E-01      29.269
   17   31 GA   15     4.774     1.517     1.184   2.831E-01      29.274
   18   31 GA   15     6.136     1.529    -4.488   2.831E-01      29.270
   19   31 GA   15     4.772    -1.545     1.185   2.831E-01      29.274
   20   31 GA   15     6.142    -1.534    -4.492   2.831E-01      29.271
   21   31 GA   15    -7.526     1.535     1.143   2.831E-01      29.268
   22   31 GA   15    -6.196     1.576    -4.531   2.831E-01      29.268
   23   31 GA   15    -7.550    -1.526     1.148   2.831E-01      29.274
   24   31 GA   15    -6.202    -1.510    -4.550   2.831E-01      29.266
   25   31 GA   15    -1.355    -0.025     1.251   2.831E-01      29.293
   26   31 GA   15     0.097     0.010    -4.566   2.831E-01      29.304
   27   31 GA   15    -1.352     3.050     1.268   2.831E-01      29.284
   28   31 GA   15    -0.012    -3.033    -4.501   2.831E-01      29.266
   29   31 GA   15    10.903    -0.010     1.162   2.831E-01      29.270
   30   31 GA   15     9.517    -0.022     6.841   2.831E-01      29.270
   31   31 GA   15    10.903     3.051     1.162   2.831E-01      29.270
   32   31 GA   15     9.517     3.041     6.841   2.831E-01      29.270
   33   31 GA   15    -4.624     0.010     1.784   2.831E-01      29.300
   34   31 GA   15    -3.353     0.071    -3.885   2.831E-01      29.329
   35   31 GA   15    -4.626     3.052     1.779   2.831E-01      29.302
   36   31 GA   15    -3.259     3.060    -3.872   2.831E-01      29.349
   37   31 GA   15     7.679    -0.014     1.800   2.831E-01      29.304
   38   31 GA   15     6.286    -0.024     7.475   2.831E-01      29.304
   39   31 GA   15     7.679     3.048     1.800   2.831E-01      29.304
   40   31 GA   15     6.286     3.037     7.475   2.831E-01      29.304
   41   31 GA   15     1.565     1.507     1.789   2.831E-01      29.313
   42   31 GA   15     2.909     1.540    -3.842   2.831E-01      29.310
   43   31 GA   15     1.566    -1.558     1.804   2.831E-01      29.302
   44   31 GA   15     2.925    -1.531    -3.852   2.831E-01      29.305
   45   31 GA   15   -10.779     1.543     1.772   2.831E-01      29.303
   46   31 GA   15    -9.406     1.552    -3.890   2.831E-01      29.303
   47   31 GA   15   -10.785    -1.520     1.776   2.831E-01      29.303
   48   31 GA   15    -9.403    -1.511    -3.888   2.831E-01      29.303
   49   31 GA   15     4.633    -0.009    -1.754   2.831E-01      29.306
   50   31 GA   15     3.269    -0.020     3.916   2.831E-01      29.304
   51   31 GA   15     4.632     3.053    -1.751   2.831E-01      29.307
   52   31 GA   15     3.266     3.040     3.918   2.831E-01      29.306
   53   31 GA   15    -7.665     0.018    -1.794   2.831E-01      29.299
   54   31 GA   15    -6.287     0.037    -7.480   2.831E-01      29.303
   55   31 GA   15    -7.666    -3.054    -1.792   2.831E-01      29.301
   56   31 GA   15    -6.283    -3.032    -7.486   2.831E-01      29.304
   57    0 XX   15    -1.649     1.747    -2.643   2.831E-01      -0.055
   58   31 GA   15    -2.898     1.532     3.909   2.831E-01      29.306
   59   31 GA   15    -1.505    -1.600    -1.858   2.831E-01      29.324
   60   31 GA   15    -2.895    -1.542     3.900   2.831E-01      29.305
   61   31 GA   15    10.783     1.524    -1.781   2.831E-01      29.304
   62   31 GA   15     9.412     1.513     3.897   2.831E-01      29.303
   63   31 GA   15    10.783    -1.538    -1.781   2.831E-01      29.304
   64   31 GA   15     9.413    -1.549     3.897   2.831E-01      29.303
   65    8 O     8    -5.755     0.021    -1.432   4.535E-01       9.085
   66    8 O     8    -7.130     0.020     4.174   4.535E-01       9.090
   67    8 O     8    -5.751     3.061    -1.429   4.535E-01       9.083
   68    8 O     8    -7.124    -3.048     4.184   4.535E-01       9.089
   69    8 O     8     6.560    -0.009    -1.439   4.535E-01       9.088
   70    8 O     8     5.187    -0.022     4.239   4.535E-01       9.089
   71    8 O     8     6.560     3.052    -1.439   4.535E-01       9.088
   72    8 O     8     5.186     3.041     4.240   4.535E-01       9.088
   73    8 O     8     0.360    -1.567    -1.383   4.535E-01       9.110
   74    8 O     8    -0.961    -1.540     4.235   4.535E-01       9.090
   75    8 O     8     0.362     1.481    -1.382   4.535E-01       8.999
   76    8 O     8    -0.962     1.520     4.223   4.535E-01       9.093
   77    8 O     8   -11.894    -1.516    -1.458   4.535E-01       9.089
   78    8 O     8    11.333    -1.550     4.222   4.535E-01       9.090
   79    8 O     8   -11.893     1.545    -1.458   4.535E-01       9.089
   80    8 O     8    11.331     1.513     4.223   4.535E-01       9.088
   81    8 O     8     5.758    -0.014     1.479   4.535E-01       9.088
   82    8 O     8     7.129    -0.001    -4.204   4.535E-01       9.087
   83    8 O     8     5.758     3.049     1.478   4.535E-01       9.088
   84    8 O     8     7.129     3.059    -4.204   4.535E-01       9.087
   85    8 O     8    -6.533    -0.005     1.431   4.535E-01       9.084
   86    8 O     8    -5.244     0.028    -4.267   4.535E-01       9.102
   87    8 O     8    -6.534    -3.049     1.433   4.535E-01       9.087
   88    8 O     8    -5.201    -3.024    -4.260   4.535E-01       9.080
   89    8 O     8    -0.391     1.512     1.444   4.535E-01       9.075
   90    8 O     8     0.976     1.561    -4.191   4.535E-01       9.090
   91    8 O     8    -0.368    -1.549     1.501   4.535E-01       9.079
   92    8 O     8     1.024    -1.526    -4.206   4.535E-01       9.087
   93    8 O     8    11.892     1.521     1.451   4.535E-01       9.087
   94    8 O     8   -11.324     1.553    -4.221   4.535E-01       9.089
   95    8 O     8    11.889    -1.541     1.453   4.535E-01       9.089
   96    8 O     8   -11.323    -1.510    -4.221   4.535E-01       9.088
   97    8 O     8    -4.271     1.529     0.613   4.535E-01       9.099
   98    8 O     8    -2.876     1.558    -5.087   4.535E-01       9.114
   99    8 O     8    -4.192    -1.530     0.593   4.535E-01       9.065
  100    8 O     8    -2.989    -1.468    -5.052   4.535E-01       9.073
  101    8 O     8     8.022     1.518     0.636   4.535E-01       9.109
  102    8 O     8     6.639     1.507     6.313   4.535E-01       9.110
  103    8 O     8     8.023    -1.544     0.635   4.535E-01       9.109
  104    8 O     8     6.637    -1.555     6.313   4.535E-01       9.109
  105    8 O     8     1.886    -0.036     0.649   4.535E-01       9.110
  106    8 O     8     3.238     0.015    -5.026   4.535E-01       9.105
  107    8 O     8     1.874     3.042     0.642   4.535E-01       9.105
  108    8 O     8     3.265     3.062    -5.026   4.535E-01       9.107
  109    8 O     8   -10.436     0.010     0.615   4.535E-01       9.108
  110    8 O     8    -9.045     0.022    -5.053   4.535E-01       9.112
  111    8 O     8   -10.437    -3.049     0.614   4.535E-01       9.108
  112    8 O     8    -9.044    -3.041    -5.054   4.535E-01       9.113
  113    8 O     8     4.296     1.520    -0.594   4.535E-01       9.105
  114    8 O     8     2.911     1.509     5.076   4.535E-01       9.108
  115    8 O     8     4.302    -1.541    -0.595   4.535E-01       9.101
  116    8 O     8     2.904    -1.551     5.075   4.535E-01       9.111
  117    8 O     8    -8.034     1.542    -0.627   4.535E-01       9.111
  118    8 O     8    -6.648     1.569    -6.325   4.535E-01       9.112
  119    8 O     8    -8.019    -1.520    -0.632   4.535E-01       9.108
  120    8 O     8    -6.656    -1.501    -6.336   4.535E-01       9.117
  121    8 O     8    -2.030    -0.177    -0.514   4.535E-01       8.578
  122    8 O     8    -3.227    -0.009     5.047   4.535E-01       9.109
  123    8 O     8    -2.098    -2.913    -0.468   4.535E-01       8.599
  124    8 O     8    -3.226     3.060     5.061   4.535E-01       9.106
  125    8 O     8    10.429    -0.008    -0.620   4.535E-01       9.110
  126    8 O     8     9.054    -0.019     5.056   4.535E-01       9.111
  127    8 O     8    10.430     3.054    -0.620   4.535E-01       9.110
  128    8 O     8     9.054     3.044     5.056   4.535E-01       9.111
  129    8 O     8    -3.519     1.540    -2.614   4.535E-01       9.159
  130    8 O     8    -4.782     1.532     3.190   4.535E-01       9.229
  131    8 O     8    -3.434    -1.494    -2.464   4.535E-01       9.210
  132    8 O     8    -4.787    -1.530     3.184   4.535E-01       9.217
  133    8 O     8     8.888     1.525    -2.471   4.535E-01       9.227
  134    8 O     8     7.515     1.515     3.207   4.535E-01       9.227
  135    8 O     8     8.887    -1.537    -2.471   4.535E-01       9.227
  136    8 O     8     7.516    -1.548     3.207   4.535E-01       9.227
  137    8 O     8     2.738    -0.016    -2.452   4.535E-01       9.223
  138    8 O     8     1.374    -0.012     3.214   4.535E-01       9.223
  139    8 O     8     2.735     3.056    -2.449   4.535E-01       9.222
  140    8 O     8     1.369     3.038     3.217   4.535E-01       9.219
  141    8 O     8    -9.565     0.017    -2.485   4.535E-01       9.229
  142    8 O     8   -10.942     0.011     3.180   4.535E-01       9.226
  143    8 O     8    -9.568    -3.045    -2.486   4.535E-01       9.229
  144    8 O     8   -10.943    -3.056     3.177   4.535E-01       9.227
  145    8 O     8     3.434     1.513     2.504   4.535E-01       9.230
  146    8 O     8     4.799     1.525    -3.166   4.535E-01       9.227
  147    8 O     8     3.436    -1.553     2.510   4.535E-01       9.231
  148    8 O     8     4.804    -1.536    -3.171   4.535E-01       9.227
  149    8 O     8    -8.876     1.542     2.455   4.535E-01       9.224
  150    8 O     8    -7.518     1.556    -3.195   4.535E-01       9.232
  151    8 O     8    -8.886    -1.522     2.460   4.535E-01       9.228
  152    8 O     8    -7.513    -1.515    -3.197   4.535E-01       9.227
  153    8 O     8    -2.728    -0.005     2.500   4.535E-01       9.229
  154    8 O     8    -1.352    -0.182    -3.325   4.535E-01       8.744
  155    8 O     8    -2.731     3.056     2.509   4.535E-01       9.234
  156    8 O     8    -1.388    -2.828    -3.307   4.535E-01       9.134
  157    8 O     8     9.569    -0.014     2.488   4.535E-01       9.228
  158    8 O     8    10.943    -0.004    -3.190   4.535E-01       9.227
  159    8 O     8     9.569     3.047     2.488   4.535E-01       9.228
  160    8 O     8    10.944     3.059    -3.189   4.535E-01       9.227
 *******************************************************************************
 DE(K)                   0.000E+00  ENERGY LEVEL SHIFTING        0.00000
 TOTAL ENERGY -1.2847527039737E+05  CONVERGENCE ON ENER       -6.521E-07
 KIN. ENERGY   1.2830154995426E+05  VIR. COEFF.           1.01754178E+00
 N. OF SCF CYCLES               26  FERMI ENERGY              -0.100E+01
 WEIGHT OF F(I) IN F(I+1)      30
 SHRINK. FACT.(MONKH.)     2  2  2  SHRINKING FACTOR(GILAT NET)        2
 NUMBER OF K POINTS IN THE IBZ   8  CELL VOLUME (A.U.)      11539.172631
 *******************************************************************************

 GCALCO - MAX INDICES DIRECT LATTICE VECTOR     7    29    15
 NO.OF VECTORS CREATED 6999 STARS 3500 RMAX   268.65658 BOHR
 TTTTTTTTTTTTTTTTTTTTTTTTTTTTTT gordsh1     TELAPSE        2.55 TCPU        1.88

 MATRIX SIZE: P(G)10860928, F(G) 1871645, P(G) IRR 5444160, F(G) IRR 1877949
 MAX G-VECTOR INDEX FOR 1- AND 2-ELECTRON INTEGRALS  87


 CAPPA:IS1  2;IS2  2;IS3  2; K PTS MONK NET   8; SYMMOPS:K SPACE   2;G SPACE   1


 CAPPA:IS1  2;IS2  2;IS3  2; K PTS MONK NET   8; SYMMOPS:K SPACE   2;G SPACE   1

 *******************************************************************************
 RESTART WITH NEW K POINTS NET
 *******************************************************************************
 POINTS IN THE IBZ                   8 POINTS(GILAT NET)                 8
 SHRINK FACTORS(MONK.)         2  2  2 SHRINK FACTOR(GILAT)              2
 *******************************************************************************
 *** K POINTS COORDINATES (OBLIQUE COORDINATES IN UNITS OF IS =  2)
   1-R(  0  0  0)   2-R(  1  0  0)   3-R(  0  1  0)   4-R(  1  1  0)
   5-R(  0  0  1)   6-R(  1  0  1)   7-R(  0  1  1)   8-R(  1  1  1)

 FERMI ENERGY AND DENSITY MATRIX CALCULATION ON COMPUTED EIGENVECTORS
 DENSITY MATRIX AT SCF CYCLE ( 26+1)

 SPIN LOCKING: NO ENERGY GAP COMPUTED

 CORE DENSITY MATRIX CALCULATION
 TTTTTTTTTTTTTTTTTTTTTTTTTTTTTT NEWK        TELAPSE      923.16 TCPU      891.31


 *******************************************************************************
 *                                                                             *
 *  BAND STRUCTURE                                                             *
 *  Ga2O3                                                                      *
 *  FROM BAND 979 TO BAND1381                                                  *
 *  TOTAL OF 112 K-POINTS ALONG THE PATH                                       *
 *                                                                             *
 *******************************************************************************

 LINE  1 (-0.32 0.68 0.00:-0.50 0.50 0.00) IN TERMS OF PRIMITIVE LATTICE VECTORS
   5 POINTS - SHRINKING_FACTOR 480
 CARTESIAN COORD. (-0.042 0.371-0.010):(-0.067 0.271-0.016) STEP  0.0257


    ALPHA      ELECTRONS

   1(***/480328/480  0/480)
                -7.407E-01 -7.404E-01 -7.404E-01 -7.404E-01 -7.403E-01 -7.402E-01 -7.400E-01 -7.400E-01 -7.398E-01 -7.397E-01
                -7.396E-01 -7.395E-01 -7.393E-01 -7.391E-01 -7.390E-01 -7.390E-01 -7.387E-01 -7.386E-01 -7.384E-01 -7.381E-01
                -7.379E-01 -7.376E-01 -7.374E-01 -7.372E-01 -7.370E-01 -7.367E-01 -7.363E-01 -7.361E-01 -7.358E-01 -7.355E-01
                -7.350E-01 -7.348E-01 -7.345E-01 -7.343E-01 -7.335E-01 -7.333E-01 -7.330E-01 -7.325E-01 -7.318E-01 -7.317E-01
                -7.313E-01 -7.311E-01 -7.308E-01 -7.304E-01 -7.302E-01 -7.301E-01 -7.298E-01 -7.294E-01 -7.292E-01 -7.284E-01
                -7.283E-01 -7.281E-01 -7.275E-01 -7.273E-01 -7.270E-01 -7.263E-01 -7.259E-01 -7.254E-01 -7.249E-01 -7.243E-01
                -7.236E-01 -7.234E-01 -7.231E-01 -7.225E-01 -7.221E-01 -7.215E-01 -7.211E-01 -7.199E-01 -7.193E-01 -7.179E-01
                -7.177E-01 -7.165E-01 -7.157E-01 -7.154E-01 -7.147E-01 -7.145E-01 -7.143E-01 -7.138E-01 -7.133E-01 -7.130E-01
                -7.124E-01 -7.121E-01 -7.113E-01 -7.108E-01 -7.105E-01 -7.102E-01 -7.099E-01 -7.095E-01 -7.092E-01 -7.086E-01
                -7.078E-01 -7.069E-01 -7.058E-01 -7.052E-01 -7.040E-01 -7.019E-01 -4.660E-01 -4.616E-01 -4.604E-01 -4.593E-01
                -4.567E-01 -4.542E-01 -4.487E-01 -4.457E-01 -4.447E-01 -4.428E-01 -4.400E-01 -4.388E-01 -4.381E-01 -4.375E-01
                -4.360E-01 -4.353E-01 -4.347E-01 -4.341E-01 -4.334E-01 -4.328E-01 -4.323E-01 -4.317E-01 -4.303E-01 -4.300E-01
                -4.286E-01 -4.275E-01 -4.266E-01 -4.254E-01 -4.241E-01 -4.236E-01 -4.206E-01 -4.193E-01 -4.184E-01 -4.156E-01
                -4.125E-01 -4.112E-01 -4.094E-01 -4.085E-01 -4.069E-01 -4.057E-01 -4.048E-01 -4.044E-01 -4.037E-01 -4.027E-01
                -4.022E-01 -4.009E-01 -3.993E-01 -3.989E-01 -3.979E-01 -3.970E-01 -3.960E-01 -3.942E-01 -3.912E-01 -3.903E-01
                -3.884E-01 -3.877E-01 -3.866E-01 -3.846E-01 -3.814E-01 -3.799E-01 -3.797E-01 -3.769E-01 -3.762E-01 -3.761E-01
                -3.756E-01 -3.731E-01 -3.721E-01 -3.704E-01 -3.698E-01 -3.690E-01 -3.683E-01 -3.669E-01 -3.661E-01 -3.647E-01
                -3.635E-01 -3.605E-01 -3.596E-01 -3.592E-01 -3.584E-01 -3.565E-01 -3.558E-01 -3.537E-01 -3.527E-01 -3.515E-01
                -3.510E-01 -3.497E-01 -3.495E-01 -3.486E-01 -3.481E-01 -3.474E-01 -3.472E-01 -3.468E-01 -3.464E-01 -3.457E-01
                -3.453E-01 -3.446E-01 -3.443E-01 -3.434E-01 -3.430E-01 -3.420E-01 -3.412E-01 -3.405E-01 -3.398E-01 -3.392E-01
                -3.384E-01 -3.377E-01 -3.364E-01 -3.357E-01 -3.352E-01 -3.340E-01 -3.332E-01 -3.318E-01 -3.310E-01 -3.293E-01
                -3.287E-01 -3.276E-01 -3.265E-01 -3.256E-01 -3.243E-01 -3.233E-01 -3.226E-01 -3.222E-01 -3.206E-01 -3.194E-01
                -3.186E-01 -3.177E-01 -3.167E-01 -3.164E-01 -3.159E-01 -3.142E-01 -3.133E-01 -3.127E-01 -3.120E-01 -3.116E-01
                -3.108E-01 -3.102E-01 -3.099E-01 -3.087E-01 -3.085E-01 -3.077E-01 -3.070E-01 -3.066E-01 -3.064E-01 -3.056E-01
                -3.052E-01 -3.046E-01 -3.036E-01 -3.031E-01 -3.024E-01 -3.011E-01 -3.001E-01 -2.993E-01 -2.985E-01 -2.974E-01
                -2.968E-01 -2.960E-01 -2.956E-01 -2.950E-01 -2.940E-01 -2.934E-01 -2.922E-01 -2.917E-01 -2.909E-01 -2.906E-01
                -2.900E-01 -2.898E-01 -2.889E-01 -2.880E-01 -2.873E-01 -2.863E-01 -2.857E-01 -2.851E-01 -2.843E-01 -2.836E-01
                -2.832E-01 -2.830E-01 -2.819E-01 -2.811E-01 -2.789E-01 -2.784E-01 -2.775E-01 -2.766E-01 -2.760E-01 -2.749E-01
                -2.739E-01 -2.717E-01 -2.701E-01 -2.692E-01 -2.682E-01 -2.677E-01 -2.671E-01 -2.663E-01 -2.660E-01 -2.652E-01
                -2.649E-01 -2.645E-01 -2.635E-01 -2.623E-01 -2.616E-01 -2.608E-01 -2.603E-01 -2.595E-01 -2.590E-01 -2.587E-01
                -2.582E-01 -2.575E-01 -2.569E-01 -2.563E-01 -2.557E-01 -2.554E-01 -2.548E-01 -2.546E-01 -2.535E-01 -2.532E-01
                -2.531E-01 -2.523E-01 -2.518E-01 -2.511E-01 -2.508E-01 -2.501E-01 -2.493E-01 -2.490E-01 -2.486E-01 -2.478E-01
                -2.471E-01 -2.468E-01 -2.463E-01 -2.456E-01 -2.447E-01 -2.446E-01 -2.443E-01 -2.439E-01 -2.437E-01 -2.432E-01
                -2.428E-01 -2.422E-01 -2.419E-01 -2.413E-01 -2.410E-01 -2.406E-01 -2.401E-01 -2.399E-01 -2.394E-01 -2.391E-01
                -2.386E-01 -2.377E-01 -2.375E-01 -2.369E-01 -2.362E-01 -2.351E-01 -2.346E-01 -2.343E-01 -2.338E-01 -2.333E-01
                -2.326E-01 -2.322E-01 -2.319E-01 -2.315E-01 -2.310E-01 -2.304E-01 -2.295E-01 -2.285E-01 -2.284E-01 -2.275E-01
                -2.266E-01 -2.257E-01 -2.251E-01 -2.248E-01 -2.233E-01 -2.231E-01 -2.229E-01 -2.223E-01 -2.218E-01 -2.215E-01
                -2.200E-01 -2.179E-01 -2.160E-01 -2.151E-01 -2.133E-01 -2.121E-01 -2.115E-01 -2.111E-01 -2.108E-01 -2.101E-01
                -2.091E-01 -2.083E-01 -2.066E-01 -2.013E-01 -2.307E-02 -1.679E-02  2.676E-03  1.731E-02  3.789E-02  4.096E-02
                 4.375E-02  4.658E-02  4.838E-02  5.342E-02  5.463E-02  5.680E-02  5.830E-02  5.931E-02  6.001E-02  6.086E-02
                 6.609E-02  6.717E-02  6.870E-02

   2(***/480306/480  0/480)
                -7.408E-01 -7.406E-01 -7.405E-01 -7.404E-01 -7.403E-01 -7.402E-01 -7.400E-01 -7.399E-01 -7.399E-01 -7.398E-01
                -7.397E-01 -7.396E-01 -7.394E-01 -7.391E-01 -7.391E-01 -7.389E-01 -7.388E-01 -7.387E-01 -7.383E-01 -7.382E-01
                -7.379E-01 -7.377E-01 -7.376E-01 -7.373E-01 -7.370E-01 -7.368E-01 -7.366E-01 -7.360E-01 -7.358E-01 -7.357E-01
                -7.354E-01 -7.350E-01 -7.347E-01 -7.344E-01 -7.342E-01 -7.334E-01 -7.327E-01 -7.322E-01 -7.319E-01 -7.316E-01
                -7.310E-01 -7.308E-01 -7.303E-01 -7.299E-01 -7.298E-01 -7.292E-01 -7.291E-01 -7.288E-01 -7.286E-01 -7.279E-01
                -7.278E-01 -7.275E-01 -7.270E-01 -7.267E-01 -7.265E-01 -7.261E-01 -7.254E-01 -7.250E-01 -7.245E-01 -7.240E-01
                -7.236E-01 -7.233E-01 -7.230E-01 -7.227E-01 -7.222E-01 -7.218E-01 -7.214E-01 -7.202E-01 -7.198E-01 -7.186E-01
                -7.174E-01 -7.170E-01 -7.165E-01 -7.160E-01 -7.155E-01 -7.153E-01 -7.146E-01 -7.138E-01 -7.134E-01 -7.130E-01
                -7.125E-01 -7.122E-01 -7.118E-01 -7.111E-01 -7.110E-01 -7.108E-01 -7.104E-01 -7.100E-01 -7.091E-01 -7.086E-01
                -7.079E-01 -7.070E-01 -7.060E-01 -7.053E-01 -7.045E-01 -7.027E-01 -4.649E-01 -4.602E-01 -4.588E-01 -4.575E-01
                -4.557E-01 -4.541E-01 -4.483E-01 -4.451E-01 -4.422E-01 -4.399E-01 -4.393E-01 -4.380E-01 -4.370E-01 -4.364E-01
                -4.343E-01 -4.339E-01 -4.330E-01 -4.326E-01 -4.321E-01 -4.315E-01 -4.304E-01 -4.299E-01 -4.287E-01 -4.279E-01
                -4.274E-01 -4.256E-01 -4.241E-01 -4.235E-01 -4.219E-01 -4.209E-01 -4.200E-01 -4.186E-01 -4.170E-01 -4.136E-01
                -4.115E-01 -4.102E-01 -4.086E-01 -4.079E-01 -4.066E-01 -4.049E-01 -4.025E-01 -4.022E-01 -4.003E-01 -3.994E-01
                -3.990E-01 -3.977E-01 -3.973E-01 -3.965E-01 -3.948E-01 -3.940E-01 -3.927E-01 -3.918E-01 -3.914E-01 -3.886E-01
                -3.862E-01 -3.857E-01 -3.852E-01 -3.838E-01 -3.822E-01 -3.806E-01 -3.787E-01 -3.757E-01 -3.748E-01 -3.746E-01
                -3.742E-01 -3.733E-01 -3.723E-01 -3.706E-01 -3.693E-01 -3.687E-01 -3.677E-01 -3.670E-01 -3.657E-01 -3.643E-01
                -3.625E-01 -3.621E-01 -3.598E-01 -3.581E-01 -3.572E-01 -3.562E-01 -3.558E-01 -3.553E-01 -3.546E-01 -3.535E-01
                -3.533E-01 -3.525E-01 -3.521E-01 -3.511E-01 -3.503E-01 -3.501E-01 -3.498E-01 -3.484E-01 -3.477E-01 -3.475E-01
                -3.466E-01 -3.456E-01 -3.451E-01 -3.442E-01 -3.432E-01 -3.431E-01 -3.426E-01 -3.418E-01 -3.408E-01 -3.392E-01
                -3.386E-01 -3.378E-01 -3.374E-01 -3.364E-01 -3.360E-01 -3.354E-01 -3.346E-01 -3.332E-01 -3.322E-01 -3.319E-01
                -3.299E-01 -3.292E-01 -3.278E-01 -3.264E-01 -3.251E-01 -3.240E-01 -3.234E-01 -3.228E-01 -3.218E-01 -3.206E-01
                -3.201E-01 -3.196E-01 -3.177E-01 -3.172E-01 -3.170E-01 -3.154E-01 -3.152E-01 -3.147E-01 -3.142E-01 -3.137E-01
                -3.127E-01 -3.112E-01 -3.106E-01 -3.096E-01 -3.089E-01 -3.084E-01 -3.076E-01 -3.071E-01 -3.069E-01 -3.060E-01
                -3.057E-01 -3.052E-01 -3.045E-01 -3.041E-01 -3.030E-01 -3.026E-01 -3.012E-01 -3.008E-01 -2.995E-01 -2.988E-01
                -2.980E-01 -2.972E-01 -2.965E-01 -2.961E-01 -2.954E-01 -2.949E-01 -2.937E-01 -2.933E-01 -2.924E-01 -2.918E-01
                -2.908E-01 -2.897E-01 -2.894E-01 -2.882E-01 -2.878E-01 -2.868E-01 -2.860E-01 -2.855E-01 -2.850E-01 -2.840E-01
                -2.835E-01 -2.832E-01 -2.828E-01 -2.818E-01 -2.808E-01 -2.802E-01 -2.794E-01 -2.787E-01 -2.773E-01 -2.764E-01
                -2.757E-01 -2.732E-01 -2.723E-01 -2.719E-01 -2.709E-01 -2.707E-01 -2.695E-01 -2.692E-01 -2.680E-01 -2.667E-01
                -2.655E-01 -2.645E-01 -2.642E-01 -2.632E-01 -2.623E-01 -2.619E-01 -2.611E-01 -2.604E-01 -2.599E-01 -2.594E-01
                -2.589E-01 -2.583E-01 -2.574E-01 -2.568E-01 -2.555E-01 -2.549E-01 -2.547E-01 -2.543E-01 -2.538E-01 -2.531E-01
                -2.528E-01 -2.526E-01 -2.515E-01 -2.513E-01 -2.503E-01 -2.501E-01 -2.494E-01 -2.490E-01 -2.483E-01 -2.480E-01
                -2.475E-01 -2.468E-01 -2.462E-01 -2.455E-01 -2.452E-01 -2.449E-01 -2.447E-01 -2.441E-01 -2.437E-01 -2.433E-01
                -2.429E-01 -2.425E-01 -2.419E-01 -2.414E-01 -2.411E-01 -2.405E-01 -2.401E-01 -2.395E-01 -2.393E-01 -2.389E-01
                -2.385E-01 -2.383E-01 -2.375E-01 -2.369E-01 -2.363E-01 -2.354E-01 -2.347E-01 -2.342E-01 -2.338E-01 -2.334E-01
                -2.330E-01 -2.323E-01 -2.318E-01 -2.313E-01 -2.310E-01 -2.306E-01 -2.298E-01 -2.289E-01 -2.283E-01 -2.281E-01
                -2.266E-01 -2.255E-01 -2.248E-01 -2.239E-01 -2.233E-01 -2.228E-01 -2.223E-01 -2.218E-01 -2.211E-01 -2.199E-01
                -2.193E-01 -2.177E-01 -2.163E-01 -2.150E-01 -2.137E-01 -2.118E-01 -2.114E-01 -2.111E-01 -2.107E-01 -2.099E-01
                -2.092E-01 -2.090E-01 -2.068E-01 -2.013E-01 -1.333E-02 -9.193E-03  1.029E-02  2.026E-02  4.272E-02  4.499E-02
                 4.808E-02  4.839E-02  4.945E-02  5.195E-02  5.266E-02  5.395E-02  5.552E-02  5.733E-02  5.838E-02  5.917E-02
                 6.632E-02  6.875E-02  7.096E-02

   3(***/480284/480  0/480)
                -7.407E-01 -7.407E-01 -7.406E-01 -7.405E-01 -7.404E-01 -7.402E-01 -7.401E-01 -7.400E-01 -7.399E-01 -7.397E-01
                -7.397E-01 -7.395E-01 -7.395E-01 -7.393E-01 -7.392E-01 -7.391E-01 -7.389E-01 -7.388E-01 -7.386E-01 -7.382E-01
                -7.381E-01 -7.378E-01 -7.376E-01 -7.374E-01 -7.373E-01 -7.372E-01 -7.367E-01 -7.364E-01 -7.362E-01 -7.358E-01
                -7.355E-01 -7.352E-01 -7.347E-01 -7.345E-01 -7.340E-01 -7.336E-01 -7.331E-01 -7.325E-01 -7.318E-01 -7.313E-01
                -7.312E-01 -7.304E-01 -7.301E-01 -7.298E-01 -7.293E-01 -7.290E-01 -7.282E-01 -7.281E-01 -7.280E-01 -7.274E-01
                -7.271E-01 -7.267E-01 -7.263E-01 -7.261E-01 -7.258E-01 -7.254E-01 -7.250E-01 -7.246E-01 -7.244E-01 -7.240E-01
                -7.238E-01 -7.235E-01 -7.229E-01 -7.227E-01 -7.219E-01 -7.217E-01 -7.211E-01 -7.205E-01 -7.201E-01 -7.192E-01
                -7.189E-01 -7.183E-01 -7.173E-01 -7.166E-01 -7.160E-01 -7.157E-01 -7.145E-01 -7.139E-01 -7.136E-01 -7.131E-01
                -7.127E-01 -7.123E-01 -7.121E-01 -7.116E-01 -7.110E-01 -7.109E-01 -7.108E-01 -7.101E-01 -7.090E-01 -7.085E-01
                -7.079E-01 -7.072E-01 -7.063E-01 -7.054E-01 -7.048E-01 -7.034E-01 -4.639E-01 -4.587E-01 -4.571E-01 -4.556E-01
                -4.551E-01 -4.543E-01 -4.490E-01 -4.467E-01 -4.391E-01 -4.382E-01 -4.371E-01 -4.365E-01 -4.360E-01 -4.352E-01
                -4.340E-01 -4.324E-01 -4.318E-01 -4.309E-01 -4.306E-01 -4.303E-01 -4.298E-01 -4.287E-01 -4.282E-01 -4.269E-01
                -4.246E-01 -4.235E-01 -4.223E-01 -4.211E-01 -4.205E-01 -4.190E-01 -4.184E-01 -4.164E-01 -4.155E-01 -4.146E-01
                -4.135E-01 -4.107E-01 -4.087E-01 -4.079E-01 -4.045E-01 -4.022E-01 -4.013E-01 -4.000E-01 -3.989E-01 -3.970E-01
                -3.959E-01 -3.953E-01 -3.945E-01 -3.938E-01 -3.922E-01 -3.906E-01 -3.892E-01 -3.878E-01 -3.868E-01 -3.859E-01
                -3.853E-01 -3.847E-01 -3.834E-01 -3.829E-01 -3.822E-01 -3.796E-01 -3.795E-01 -3.781E-01 -3.754E-01 -3.748E-01
                -3.741E-01 -3.728E-01 -3.720E-01 -3.709E-01 -3.697E-01 -3.692E-01 -3.679E-01 -3.675E-01 -3.665E-01 -3.655E-01
                -3.646E-01 -3.610E-01 -3.602E-01 -3.589E-01 -3.585E-01 -3.579E-01 -3.570E-01 -3.561E-01 -3.557E-01 -3.554E-01
                -3.550E-01 -3.548E-01 -3.536E-01 -3.529E-01 -3.526E-01 -3.510E-01 -3.508E-01 -3.499E-01 -3.488E-01 -3.485E-01
                -3.467E-01 -3.458E-01 -3.451E-01 -3.444E-01 -3.430E-01 -3.422E-01 -3.418E-01 -3.409E-01 -3.406E-01 -3.401E-01
                -3.391E-01 -3.386E-01 -3.371E-01 -3.364E-01 -3.361E-01 -3.351E-01 -3.346E-01 -3.341E-01 -3.333E-01 -3.327E-01
                -3.318E-01 -3.300E-01 -3.294E-01 -3.287E-01 -3.271E-01 -3.263E-01 -3.259E-01 -3.248E-01 -3.234E-01 -3.230E-01
                -3.217E-01 -3.206E-01 -3.199E-01 -3.193E-01 -3.183E-01 -3.177E-01 -3.167E-01 -3.159E-01 -3.150E-01 -3.135E-01
                -3.131E-01 -3.116E-01 -3.107E-01 -3.097E-01 -3.091E-01 -3.087E-01 -3.083E-01 -3.076E-01 -3.073E-01 -3.068E-01
                -3.061E-01 -3.057E-01 -3.047E-01 -3.038E-01 -3.034E-01 -3.028E-01 -3.018E-01 -3.011E-01 -3.010E-01 -2.993E-01
                -2.988E-01 -2.976E-01 -2.969E-01 -2.965E-01 -2.961E-01 -2.952E-01 -2.945E-01 -2.938E-01 -2.935E-01 -2.924E-01
                -2.916E-01 -2.908E-01 -2.900E-01 -2.893E-01 -2.886E-01 -2.881E-01 -2.876E-01 -2.870E-01 -2.851E-01 -2.847E-01
                -2.842E-01 -2.835E-01 -2.833E-01 -2.825E-01 -2.820E-01 -2.806E-01 -2.799E-01 -2.792E-01 -2.786E-01 -2.779E-01
                -2.775E-01 -2.766E-01 -2.760E-01 -2.753E-01 -2.745E-01 -2.733E-01 -2.720E-01 -2.700E-01 -2.683E-01 -2.668E-01
                -2.656E-01 -2.647E-01 -2.646E-01 -2.642E-01 -2.634E-01 -2.629E-01 -2.617E-01 -2.612E-01 -2.604E-01 -2.598E-01
                -2.593E-01 -2.583E-01 -2.575E-01 -2.566E-01 -2.563E-01 -2.559E-01 -2.550E-01 -2.542E-01 -2.538E-01 -2.535E-01
                -2.521E-01 -2.515E-01 -2.509E-01 -2.506E-01 -2.502E-01 -2.496E-01 -2.492E-01 -2.489E-01 -2.487E-01 -2.477E-01
                -2.471E-01 -2.467E-01 -2.462E-01 -2.457E-01 -2.454E-01 -2.450E-01 -2.443E-01 -2.442E-01 -2.437E-01 -2.433E-01
                -2.429E-01 -2.424E-01 -2.421E-01 -2.413E-01 -2.409E-01 -2.406E-01 -2.402E-01 -2.397E-01 -2.394E-01 -2.387E-01
                -2.382E-01 -2.380E-01 -2.374E-01 -2.366E-01 -2.359E-01 -2.354E-01 -2.348E-01 -2.342E-01 -2.340E-01 -2.336E-01
                -2.332E-01 -2.329E-01 -2.322E-01 -2.316E-01 -2.311E-01 -2.304E-01 -2.298E-01 -2.295E-01 -2.288E-01 -2.278E-01
                -2.267E-01 -2.254E-01 -2.246E-01 -2.237E-01 -2.230E-01 -2.227E-01 -2.223E-01 -2.213E-01 -2.203E-01 -2.190E-01
                -2.178E-01 -2.172E-01 -2.160E-01 -2.149E-01 -2.140E-01 -2.118E-01 -2.116E-01 -2.113E-01 -2.104E-01 -2.101E-01
                -2.097E-01 -2.091E-01 -2.069E-01 -2.013E-01 -3.272E-03 -7.478E-04  1.804E-02  2.396E-02  3.742E-02  3.902E-02
                 4.558E-02  4.770E-02  4.826E-02  5.085E-02  5.290E-02  5.720E-02  5.898E-02  6.005E-02  6.194E-02  6.283E-02
                 6.470E-02  6.735E-02  6.806E-02

   4(***/480262/480  0/480)
                -7.407E-01 -7.406E-01 -7.406E-01 -7.405E-01 -7.404E-01 -7.402E-01 -7.400E-01 -7.400E-01 -7.399E-01 -7.398E-01
                -7.397E-01 -7.396E-01 -7.396E-01 -7.394E-01 -7.394E-01 -7.393E-01 -7.391E-01 -7.388E-01 -7.386E-01 -7.385E-01
                -7.383E-01 -7.382E-01 -7.380E-01 -7.377E-01 -7.374E-01 -7.372E-01 -7.370E-01 -7.364E-01 -7.360E-01 -7.357E-01
                -7.353E-01 -7.351E-01 -7.348E-01 -7.343E-01 -7.339E-01 -7.337E-01 -7.335E-01 -7.328E-01 -7.320E-01 -7.316E-01
                -7.305E-01 -7.303E-01 -7.298E-01 -7.297E-01 -7.290E-01 -7.285E-01 -7.283E-01 -7.278E-01 -7.271E-01 -7.269E-01
                -7.265E-01 -7.261E-01 -7.257E-01 -7.254E-01 -7.249E-01 -7.248E-01 -7.247E-01 -7.244E-01 -7.242E-01 -7.239E-01
                -7.236E-01 -7.233E-01 -7.230E-01 -7.227E-01 -7.225E-01 -7.215E-01 -7.210E-01 -7.207E-01 -7.202E-01 -7.201E-01
                -7.196E-01 -7.192E-01 -7.184E-01 -7.172E-01 -7.168E-01 -7.154E-01 -7.145E-01 -7.142E-01 -7.141E-01 -7.133E-01
                -7.130E-01 -7.127E-01 -7.122E-01 -7.118E-01 -7.110E-01 -7.108E-01 -7.105E-01 -7.099E-01 -7.090E-01 -7.083E-01
                -7.081E-01 -7.076E-01 -7.063E-01 -7.056E-01 -7.050E-01 -7.040E-01 -4.632E-01 -4.574E-01 -4.559E-01 -4.552E-01
                -4.543E-01 -4.534E-01 -4.503E-01 -4.486E-01 -4.382E-01 -4.363E-01 -4.357E-01 -4.355E-01 -4.345E-01 -4.340E-01
                -4.328E-01 -4.322E-01 -4.313E-01 -4.306E-01 -4.296E-01 -4.292E-01 -4.282E-01 -4.274E-01 -4.267E-01 -4.261E-01
                -4.241E-01 -4.228E-01 -4.214E-01 -4.208E-01 -4.204E-01 -4.191E-01 -4.181E-01 -4.159E-01 -4.141E-01 -4.134E-01
                -4.120E-01 -4.102E-01 -4.098E-01 -4.056E-01 -4.042E-01 -4.017E-01 -4.009E-01 -3.994E-01 -3.978E-01 -3.969E-01
                -3.949E-01 -3.931E-01 -3.920E-01 -3.898E-01 -3.885E-01 -3.877E-01 -3.874E-01 -3.867E-01 -3.849E-01 -3.845E-01
                -3.835E-01 -3.827E-01 -3.820E-01 -3.809E-01 -3.799E-01 -3.788E-01 -3.785E-01 -3.767E-01 -3.762E-01 -3.756E-01
                -3.744E-01 -3.738E-01 -3.732E-01 -3.721E-01 -3.713E-01 -3.702E-01 -3.683E-01 -3.670E-01 -3.660E-01 -3.659E-01
                -3.655E-01 -3.648E-01 -3.644E-01 -3.637E-01 -3.625E-01 -3.604E-01 -3.599E-01 -3.595E-01 -3.591E-01 -3.577E-01
                -3.569E-01 -3.545E-01 -3.527E-01 -3.514E-01 -3.500E-01 -3.490E-01 -3.488E-01 -3.482E-01 -3.472E-01 -3.461E-01
                -3.456E-01 -3.453E-01 -3.447E-01 -3.443E-01 -3.434E-01 -3.426E-01 -3.422E-01 -3.415E-01 -3.411E-01 -3.408E-01
                -3.397E-01 -3.383E-01 -3.368E-01 -3.363E-01 -3.358E-01 -3.346E-01 -3.339E-01 -3.334E-01 -3.327E-01 -3.323E-01
                -3.316E-01 -3.313E-01 -3.308E-01 -3.304E-01 -3.299E-01 -3.293E-01 -3.292E-01 -3.275E-01 -3.268E-01 -3.254E-01
                -3.234E-01 -3.229E-01 -3.214E-01 -3.206E-01 -3.197E-01 -3.185E-01 -3.175E-01 -3.162E-01 -3.157E-01 -3.141E-01
                -3.129E-01 -3.117E-01 -3.115E-01 -3.109E-01 -3.100E-01 -3.091E-01 -3.081E-01 -3.073E-01 -3.061E-01 -3.058E-01
                -3.055E-01 -3.049E-01 -3.045E-01 -3.042E-01 -3.039E-01 -3.029E-01 -3.018E-01 -3.001E-01 -2.992E-01 -2.990E-01
                -2.983E-01 -2.980E-01 -2.977E-01 -2.970E-01 -2.966E-01 -2.953E-01 -2.947E-01 -2.941E-01 -2.935E-01 -2.933E-01
                -2.929E-01 -2.920E-01 -2.917E-01 -2.909E-01 -2.906E-01 -2.891E-01 -2.881E-01 -2.869E-01 -2.861E-01 -2.856E-01
                -2.851E-01 -2.848E-01 -2.839E-01 -2.833E-01 -2.820E-01 -2.818E-01 -2.804E-01 -2.801E-01 -2.797E-01 -2.792E-01
                -2.790E-01 -2.777E-01 -2.775E-01 -2.766E-01 -2.761E-01 -2.755E-01 -2.737E-01 -2.701E-01 -2.686E-01 -2.666E-01
                -2.664E-01 -2.656E-01 -2.648E-01 -2.644E-01 -2.639E-01 -2.631E-01 -2.620E-01 -2.613E-01 -2.607E-01 -2.600E-01
                -2.595E-01 -2.588E-01 -2.581E-01 -2.577E-01 -2.575E-01 -2.555E-01 -2.546E-01 -2.543E-01 -2.535E-01 -2.528E-01
                -2.520E-01 -2.514E-01 -2.508E-01 -2.504E-01 -2.499E-01 -2.494E-01 -2.490E-01 -2.485E-01 -2.479E-01 -2.475E-01
                -2.470E-01 -2.467E-01 -2.466E-01 -2.459E-01 -2.455E-01 -2.449E-01 -2.447E-01 -2.442E-01 -2.439E-01 -2.434E-01
                -2.429E-01 -2.420E-01 -2.418E-01 -2.412E-01 -2.409E-01 -2.406E-01 -2.404E-01 -2.399E-01 -2.388E-01 -2.384E-01
                -2.377E-01 -2.373E-01 -2.372E-01 -2.363E-01 -2.355E-01 -2.353E-01 -2.350E-01 -2.347E-01 -2.342E-01 -2.339E-01
                -2.334E-01 -2.331E-01 -2.329E-01 -2.322E-01 -2.317E-01 -2.302E-01 -2.299E-01 -2.294E-01 -2.286E-01 -2.276E-01
                -2.267E-01 -2.257E-01 -2.250E-01 -2.244E-01 -2.227E-01 -2.224E-01 -2.218E-01 -2.207E-01 -2.201E-01 -2.186E-01
                -2.176E-01 -2.160E-01 -2.150E-01 -2.148E-01 -2.140E-01 -2.126E-01 -2.115E-01 -2.114E-01 -2.111E-01 -2.102E-01
                -2.097E-01 -2.091E-01 -2.070E-01 -2.012E-01  6.898E-03  8.437E-03  2.572E-02  2.705E-02  2.826E-02  2.917E-02
                 3.941E-02  4.113E-02  5.265E-02  5.475E-02  5.725E-02  6.002E-02  6.163E-02  6.235E-02  6.387E-02  6.475E-02
                 6.566E-02  6.610E-02  6.670E-02

   5(***/480240/480  0/480)
                -7.408E-01 -7.407E-01 -7.406E-01 -7.403E-01 -7.402E-01 -7.402E-01 -7.401E-01 -7.400E-01 -7.399E-01 -7.398E-01
                -7.397E-01 -7.397E-01 -7.397E-01 -7.395E-01 -7.394E-01 -7.392E-01 -7.391E-01 -7.389E-01 -7.389E-01 -7.386E-01
                -7.385E-01 -7.384E-01 -7.382E-01 -7.378E-01 -7.375E-01 -7.373E-01 -7.370E-01 -7.363E-01 -7.359E-01 -7.356E-01
                -7.353E-01 -7.349E-01 -7.348E-01 -7.344E-01 -7.340E-01 -7.339E-01 -7.333E-01 -7.331E-01 -7.321E-01 -7.317E-01
                -7.304E-01 -7.298E-01 -7.298E-01 -7.293E-01 -7.291E-01 -7.289E-01 -7.278E-01 -7.274E-01 -7.273E-01 -7.267E-01
                -7.262E-01 -7.259E-01 -7.258E-01 -7.251E-01 -7.248E-01 -7.246E-01 -7.244E-01 -7.242E-01 -7.238E-01 -7.234E-01
                -7.233E-01 -7.232E-01 -7.230E-01 -7.226E-01 -7.224E-01 -7.219E-01 -7.213E-01 -7.211E-01 -7.211E-01 -7.207E-01
                -7.191E-01 -7.185E-01 -7.183E-01 -7.179E-01 -7.178E-01 -7.149E-01 -7.147E-01 -7.144E-01 -7.140E-01 -7.135E-01
                -7.132E-01 -7.128E-01 -7.121E-01 -7.118E-01 -7.110E-01 -7.108E-01 -7.105E-01 -7.095E-01 -7.090E-01 -7.084E-01
                -7.082E-01 -7.077E-01 -7.062E-01 -7.056E-01 -7.051E-01 -7.042E-01 -4.629E-01 -4.564E-01 -4.563E-01 -4.551E-01
                -4.537E-01 -4.517E-01 -4.515E-01 -4.500E-01 -4.380E-01 -4.360E-01 -4.352E-01 -4.347E-01 -4.344E-01 -4.332E-01
                -4.327E-01 -4.313E-01 -4.309E-01 -4.306E-01 -4.303E-01 -4.289E-01 -4.272E-01 -4.254E-01 -4.251E-01 -4.244E-01
                -4.241E-01 -4.235E-01 -4.233E-01 -4.218E-01 -4.208E-01 -4.201E-01 -4.192E-01 -4.141E-01 -4.132E-01 -4.123E-01
                -4.113E-01 -4.091E-01 -4.081E-01 -4.059E-01 -4.052E-01 -4.032E-01 -4.007E-01 -3.993E-01 -3.982E-01 -3.960E-01
                -3.916E-01 -3.910E-01 -3.908E-01 -3.901E-01 -3.891E-01 -3.889E-01 -3.884E-01 -3.859E-01 -3.833E-01 -3.820E-01
                -3.816E-01 -3.814E-01 -3.800E-01 -3.795E-01 -3.792E-01 -3.788E-01 -3.785E-01 -3.778E-01 -3.766E-01 -3.763E-01
                -3.754E-01 -3.727E-01 -3.714E-01 -3.710E-01 -3.706E-01 -3.700E-01 -3.696E-01 -3.689E-01 -3.678E-01 -3.668E-01
                -3.666E-01 -3.658E-01 -3.644E-01 -3.634E-01 -3.632E-01 -3.631E-01 -3.628E-01 -3.624E-01 -3.612E-01 -3.589E-01
                -3.573E-01 -3.538E-01 -3.536E-01 -3.505E-01 -3.499E-01 -3.486E-01 -3.479E-01 -3.474E-01 -3.459E-01 -3.458E-01
                -3.449E-01 -3.446E-01 -3.433E-01 -3.426E-01 -3.422E-01 -3.417E-01 -3.414E-01 -3.408E-01 -3.404E-01 -3.397E-01
                -3.396E-01 -3.386E-01 -3.381E-01 -3.375E-01 -3.374E-01 -3.356E-01 -3.344E-01 -3.343E-01 -3.337E-01 -3.329E-01
                -3.324E-01 -3.321E-01 -3.316E-01 -3.309E-01 -3.289E-01 -3.288E-01 -3.281E-01 -3.274E-01 -3.266E-01 -3.259E-01
                -3.254E-01 -3.247E-01 -3.240E-01 -3.234E-01 -3.211E-01 -3.197E-01 -3.168E-01 -3.151E-01 -3.144E-01 -3.140E-01
                -3.136E-01 -3.124E-01 -3.111E-01 -3.101E-01 -3.097E-01 -3.090E-01 -3.086E-01 -3.082E-01 -3.076E-01 -3.058E-01
                -3.054E-01 -3.044E-01 -3.040E-01 -3.037E-01 -3.020E-01 -3.016E-01 -3.006E-01 -3.002E-01 -2.995E-01 -2.990E-01
                -2.984E-01 -2.983E-01 -2.972E-01 -2.970E-01 -2.964E-01 -2.961E-01 -2.957E-01 -2.948E-01 -2.943E-01 -2.938E-01
                -2.937E-01 -2.923E-01 -2.907E-01 -2.901E-01 -2.898E-01 -2.891E-01 -2.888E-01 -2.885E-01 -2.873E-01 -2.872E-01
                -2.852E-01 -2.851E-01 -2.847E-01 -2.839E-01 -2.836E-01 -2.819E-01 -2.805E-01 -2.802E-01 -2.794E-01 -2.788E-01
                -2.787E-01 -2.785E-01 -2.774E-01 -2.771E-01 -2.765E-01 -2.760E-01 -2.750E-01 -2.699E-01 -2.687E-01 -2.673E-01
                -2.663E-01 -2.656E-01 -2.650E-01 -2.648E-01 -2.633E-01 -2.629E-01 -2.626E-01 -2.611E-01 -2.604E-01 -2.602E-01
                -2.596E-01 -2.592E-01 -2.587E-01 -2.582E-01 -2.579E-01 -2.552E-01 -2.546E-01 -2.543E-01 -2.525E-01 -2.524E-01
                -2.522E-01 -2.515E-01 -2.507E-01 -2.505E-01 -2.503E-01 -2.491E-01 -2.489E-01 -2.481E-01 -2.478E-01 -2.475E-01
                -2.471E-01 -2.465E-01 -2.462E-01 -2.458E-01 -2.457E-01 -2.455E-01 -2.451E-01 -2.441E-01 -2.440E-01 -2.436E-01
                -2.426E-01 -2.416E-01 -2.415E-01 -2.412E-01 -2.411E-01 -2.410E-01 -2.402E-01 -2.402E-01 -2.383E-01 -2.382E-01
                -2.373E-01 -2.367E-01 -2.366E-01 -2.362E-01 -2.360E-01 -2.358E-01 -2.350E-01 -2.348E-01 -2.344E-01 -2.338E-01
                -2.336E-01 -2.331E-01 -2.331E-01 -2.323E-01 -2.321E-01 -2.303E-01 -2.298E-01 -2.296E-01 -2.280E-01 -2.270E-01
                -2.268E-01 -2.262E-01 -2.256E-01 -2.243E-01 -2.227E-01 -2.223E-01 -2.217E-01 -2.204E-01 -2.199E-01 -2.189E-01
                -2.174E-01 -2.157E-01 -2.148E-01 -2.142E-01 -2.136E-01 -2.128E-01 -2.126E-01 -2.113E-01 -2.112E-01 -2.101E-01
                -2.098E-01 -2.091E-01 -2.071E-01 -2.012E-01  1.616E-02  1.748E-02  1.805E-02  1.909E-02  3.306E-02  3.343E-02
                 3.361E-02  3.439E-02  5.625E-02  5.731E-02  5.896E-02  6.061E-02  6.144E-02  6.152E-02  6.195E-02  6.295E-02
                 6.726E-02  6.960E-02  7.056E-02

    BETA       ELECTRONS

   1(***/480328/480  0/480)
                -7.406E-01 -7.404E-01 -7.404E-01 -7.403E-01 -7.403E-01 -7.401E-01 -7.400E-01 -7.399E-01 -7.398E-01 -7.396E-01
                -7.396E-01 -7.393E-01 -7.392E-01 -7.391E-01 -7.390E-01 -7.389E-01 -7.386E-01 -7.384E-01 -7.383E-01 -7.380E-01
                -7.377E-01 -7.374E-01 -7.373E-01 -7.371E-01 -7.367E-01 -7.365E-01 -7.362E-01 -7.361E-01 -7.356E-01 -7.353E-01
                -7.349E-01 -7.347E-01 -7.344E-01 -7.341E-01 -7.335E-01 -7.332E-01 -7.329E-01 -7.319E-01 -7.317E-01 -7.314E-01
                -7.311E-01 -7.309E-01 -7.307E-01 -7.302E-01 -7.301E-01 -7.297E-01 -7.295E-01 -7.292E-01 -7.290E-01 -7.284E-01
                -7.281E-01 -7.280E-01 -7.274E-01 -7.271E-01 -7.269E-01 -7.262E-01 -7.258E-01 -7.252E-01 -7.247E-01 -7.241E-01
                -7.235E-01 -7.233E-01 -7.229E-01 -7.222E-01 -7.218E-01 -7.213E-01 -7.210E-01 -7.196E-01 -7.189E-01 -7.177E-01
                -7.174E-01 -7.163E-01 -7.156E-01 -7.154E-01 -7.146E-01 -7.145E-01 -7.142E-01 -7.137E-01 -7.132E-01 -7.129E-01
                -7.122E-01 -7.120E-01 -7.111E-01 -7.107E-01 -7.104E-01 -7.101E-01 -7.098E-01 -7.094E-01 -7.092E-01 -7.084E-01
                -7.077E-01 -7.067E-01 -7.056E-01 -7.041E-01 -7.034E-01 -7.012E-01 -4.632E-01 -4.616E-01 -4.602E-01 -4.587E-01
                -4.560E-01 -4.539E-01 -4.482E-01 -4.453E-01 -4.443E-01 -4.425E-01 -4.389E-01 -4.374E-01 -4.370E-01 -4.366E-01
                -4.356E-01 -4.349E-01 -4.342E-01 -4.338E-01 -4.330E-01 -4.324E-01 -4.315E-01 -4.309E-01 -4.298E-01 -4.297E-01
                -4.280E-01 -4.270E-01 -4.257E-01 -4.249E-01 -4.235E-01 -4.232E-01 -4.201E-01 -4.188E-01 -4.179E-01 -4.148E-01
                -4.119E-01 -4.102E-01 -4.086E-01 -4.076E-01 -4.063E-01 -4.049E-01 -4.042E-01 -4.037E-01 -4.028E-01 -4.023E-01
                -4.017E-01 -3.997E-01 -3.990E-01 -3.983E-01 -3.972E-01 -3.958E-01 -3.951E-01 -3.934E-01 -3.893E-01 -3.885E-01
                -3.876E-01 -3.863E-01 -3.857E-01 -3.828E-01 -3.801E-01 -3.771E-01 -3.764E-01 -3.759E-01 -3.753E-01 -3.743E-01
                -3.726E-01 -3.715E-01 -3.702E-01 -3.693E-01 -3.685E-01 -3.671E-01 -3.662E-01 -3.656E-01 -3.630E-01 -3.614E-01
                -3.593E-01 -3.587E-01 -3.579E-01 -3.565E-01 -3.549E-01 -3.541E-01 -3.523E-01 -3.514E-01 -3.503E-01 -3.495E-01
                -3.488E-01 -3.480E-01 -3.474E-01 -3.469E-01 -3.468E-01 -3.463E-01 -3.456E-01 -3.450E-01 -3.448E-01 -3.444E-01
                -3.429E-01 -3.427E-01 -3.422E-01 -3.419E-01 -3.410E-01 -3.396E-01 -3.395E-01 -3.386E-01 -3.376E-01 -3.369E-01
                -3.355E-01 -3.352E-01 -3.338E-01 -3.333E-01 -3.326E-01 -3.319E-01 -3.300E-01 -3.287E-01 -3.279E-01 -3.266E-01
                -3.255E-01 -3.244E-01 -3.235E-01 -3.221E-01 -3.219E-01 -3.203E-01 -3.195E-01 -3.187E-01 -3.175E-01 -3.168E-01
                -3.159E-01 -3.152E-01 -3.142E-01 -3.126E-01 -3.123E-01 -3.117E-01 -3.107E-01 -3.105E-01 -3.102E-01 -3.096E-01
                -3.086E-01 -3.083E-01 -3.077E-01 -3.068E-01 -3.065E-01 -3.058E-01 -3.053E-01 -3.046E-01 -3.042E-01 -3.034E-01
                -3.018E-01 -3.013E-01 -3.002E-01 -2.997E-01 -2.988E-01 -2.984E-01 -2.974E-01 -2.966E-01 -2.960E-01 -2.953E-01
                -2.944E-01 -2.939E-01 -2.934E-01 -2.919E-01 -2.911E-01 -2.904E-01 -2.901E-01 -2.896E-01 -2.891E-01 -2.885E-01
                -2.880E-01 -2.865E-01 -2.855E-01 -2.849E-01 -2.841E-01 -2.838E-01 -2.836E-01 -2.831E-01 -2.826E-01 -2.815E-01
                -2.807E-01 -2.784E-01 -2.777E-01 -2.770E-01 -2.757E-01 -2.748E-01 -2.735E-01 -2.732E-01 -2.715E-01 -2.693E-01
                -2.685E-01 -2.678E-01 -2.666E-01 -2.660E-01 -2.656E-01 -2.649E-01 -2.645E-01 -2.635E-01 -2.630E-01 -2.623E-01
                -2.614E-01 -2.608E-01 -2.599E-01 -2.592E-01 -2.589E-01 -2.584E-01 -2.578E-01 -2.573E-01 -2.564E-01 -2.561E-01
                -2.557E-01 -2.547E-01 -2.543E-01 -2.538E-01 -2.534E-01 -2.531E-01 -2.527E-01 -2.520E-01 -2.513E-01 -2.506E-01
                -2.503E-01 -2.498E-01 -2.491E-01 -2.484E-01 -2.481E-01 -2.477E-01 -2.469E-01 -2.464E-01 -2.458E-01 -2.454E-01
                -2.447E-01 -2.442E-01 -2.440E-01 -2.435E-01 -2.432E-01 -2.427E-01 -2.424E-01 -2.420E-01 -2.417E-01 -2.414E-01
                -2.405E-01 -2.400E-01 -2.399E-01 -2.395E-01 -2.389E-01 -2.388E-01 -2.381E-01 -2.377E-01 -2.374E-01 -2.367E-01
                -2.361E-01 -2.354E-01 -2.347E-01 -2.341E-01 -2.338E-01 -2.332E-01 -2.328E-01 -2.321E-01 -2.316E-01 -2.312E-01
                -2.310E-01 -2.301E-01 -2.297E-01 -2.283E-01 -2.279E-01 -2.275E-01 -2.270E-01 -2.260E-01 -2.253E-01 -2.247E-01
                -2.241E-01 -2.231E-01 -2.228E-01 -2.227E-01 -2.223E-01 -2.217E-01 -2.209E-01 -2.192E-01 -2.162E-01 -2.144E-01
                -2.124E-01 -2.121E-01 -2.116E-01 -2.112E-01 -2.110E-01 -2.097E-01 -2.089E-01 -2.084E-01 -2.074E-01 -2.033E-01
                -1.931E-01 -1.658E-01 -1.610E-01 -1.419E-01 -2.232E-02 -1.586E-02  3.573E-03  1.810E-02  3.895E-02  4.173E-02
                 4.443E-02  4.772E-02  4.927E-02  5.418E-02  5.539E-02  5.750E-02  5.860E-02  5.940E-02  6.016E-02  6.320E-02
                 6.691E-02  6.787E-02  6.893E-02

   2(***/480306/480  0/480)
                -7.407E-01 -7.405E-01 -7.405E-01 -7.404E-01 -7.403E-01 -7.402E-01 -7.400E-01 -7.399E-01 -7.398E-01 -7.398E-01
                -7.396E-01 -7.394E-01 -7.392E-01 -7.391E-01 -7.390E-01 -7.389E-01 -7.387E-01 -7.385E-01 -7.383E-01 -7.380E-01
                -7.378E-01 -7.375E-01 -7.373E-01 -7.372E-01 -7.369E-01 -7.367E-01 -7.364E-01 -7.359E-01 -7.357E-01 -7.356E-01
                -7.353E-01 -7.349E-01 -7.345E-01 -7.343E-01 -7.339E-01 -7.333E-01 -7.322E-01 -7.318E-01 -7.317E-01 -7.313E-01
                -7.309E-01 -7.308E-01 -7.302E-01 -7.297E-01 -7.294E-01 -7.291E-01 -7.290E-01 -7.288E-01 -7.284E-01 -7.278E-01
                -7.277E-01 -7.274E-01 -7.269E-01 -7.265E-01 -7.263E-01 -7.260E-01 -7.252E-01 -7.247E-01 -7.243E-01 -7.239E-01
                -7.235E-01 -7.232E-01 -7.229E-01 -7.226E-01 -7.219E-01 -7.217E-01 -7.212E-01 -7.198E-01 -7.193E-01 -7.184E-01
                -7.173E-01 -7.169E-01 -7.165E-01 -7.159E-01 -7.154E-01 -7.153E-01 -7.145E-01 -7.136E-01 -7.133E-01 -7.128E-01
                -7.123E-01 -7.120E-01 -7.118E-01 -7.110E-01 -7.109E-01 -7.106E-01 -7.104E-01 -7.099E-01 -7.091E-01 -7.083E-01
                -7.077E-01 -7.067E-01 -7.058E-01 -7.043E-01 -7.038E-01 -7.021E-01 -4.620E-01 -4.601E-01 -4.586E-01 -4.569E-01
                -4.552E-01 -4.537E-01 -4.477E-01 -4.446E-01 -4.416E-01 -4.395E-01 -4.385E-01 -4.369E-01 -4.360E-01 -4.350E-01
                -4.339E-01 -4.333E-01 -4.326E-01 -4.323E-01 -4.313E-01 -4.307E-01 -4.302E-01 -4.295E-01 -4.284E-01 -4.275E-01
                -4.269E-01 -4.242E-01 -4.238E-01 -4.230E-01 -4.214E-01 -4.205E-01 -4.195E-01 -4.180E-01 -4.165E-01 -4.123E-01
                -4.106E-01 -4.096E-01 -4.082E-01 -4.072E-01 -4.058E-01 -4.039E-01 -4.017E-01 -4.007E-01 -3.995E-01 -3.987E-01
                -3.983E-01 -3.972E-01 -3.963E-01 -3.957E-01 -3.944E-01 -3.933E-01 -3.922E-01 -3.911E-01 -3.903E-01 -3.860E-01
                -3.851E-01 -3.844E-01 -3.842E-01 -3.827E-01 -3.813E-01 -3.759E-01 -3.750E-01 -3.744E-01 -3.740E-01 -3.733E-01
                -3.725E-01 -3.717E-01 -3.698E-01 -3.690E-01 -3.684E-01 -3.675E-01 -3.667E-01 -3.635E-01 -3.625E-01 -3.621E-01
                -3.606E-01 -3.586E-01 -3.568E-01 -3.562E-01 -3.553E-01 -3.549E-01 -3.543E-01 -3.538E-01 -3.527E-01 -3.520E-01
                -3.517E-01 -3.505E-01 -3.499E-01 -3.496E-01 -3.490E-01 -3.478E-01 -3.472E-01 -3.464E-01 -3.459E-01 -3.449E-01
                -3.435E-01 -3.431E-01 -3.426E-01 -3.422E-01 -3.415E-01 -3.405E-01 -3.402E-01 -3.390E-01 -3.382E-01 -3.374E-01
                -3.369E-01 -3.355E-01 -3.352E-01 -3.348E-01 -3.339E-01 -3.333E-01 -3.320E-01 -3.310E-01 -3.291E-01 -3.277E-01
                -3.272E-01 -3.256E-01 -3.247E-01 -3.233E-01 -3.228E-01 -3.220E-01 -3.207E-01 -3.196E-01 -3.192E-01 -3.176E-01
                -3.171E-01 -3.166E-01 -3.156E-01 -3.146E-01 -3.141E-01 -3.135E-01 -3.132E-01 -3.124E-01 -3.113E-01 -3.099E-01
                -3.093E-01 -3.088E-01 -3.081E-01 -3.076E-01 -3.067E-01 -3.066E-01 -3.062E-01 -3.052E-01 -3.042E-01 -3.040E-01
                -3.032E-01 -3.030E-01 -3.020E-01 -3.006E-01 -3.003E-01 -2.988E-01 -2.982E-01 -2.980E-01 -2.970E-01 -2.962E-01
                -2.956E-01 -2.950E-01 -2.944E-01 -2.935E-01 -2.927E-01 -2.921E-01 -2.912E-01 -2.904E-01 -2.894E-01 -2.885E-01
                -2.877E-01 -2.874E-01 -2.864E-01 -2.858E-01 -2.847E-01 -2.843E-01 -2.836E-01 -2.832E-01 -2.827E-01 -2.825E-01
                -2.814E-01 -2.802E-01 -2.792E-01 -2.786E-01 -2.781E-01 -2.765E-01 -2.754E-01 -2.742E-01 -2.730E-01 -2.723E-01
                -2.716E-01 -2.708E-01 -2.698E-01 -2.694E-01 -2.677E-01 -2.666E-01 -2.647E-01 -2.646E-01 -2.636E-01 -2.629E-01
                -2.619E-01 -2.613E-01 -2.611E-01 -2.602E-01 -2.598E-01 -2.594E-01 -2.585E-01 -2.579E-01 -2.572E-01 -2.566E-01
                -2.555E-01 -2.547E-01 -2.543E-01 -2.538E-01 -2.530E-01 -2.528E-01 -2.522E-01 -2.518E-01 -2.512E-01 -2.504E-01
                -2.499E-01 -2.495E-01 -2.492E-01 -2.484E-01 -2.480E-01 -2.474E-01 -2.471E-01 -2.461E-01 -2.461E-01 -2.454E-01
                -2.451E-01 -2.445E-01 -2.440E-01 -2.437E-01 -2.432E-01 -2.431E-01 -2.426E-01 -2.423E-01 -2.417E-01 -2.414E-01
                -2.404E-01 -2.400E-01 -2.396E-01 -2.393E-01 -2.391E-01 -2.387E-01 -2.381E-01 -2.379E-01 -2.373E-01 -2.367E-01
                -2.362E-01 -2.354E-01 -2.350E-01 -2.341E-01 -2.338E-01 -2.334E-01 -2.329E-01 -2.320E-01 -2.318E-01 -2.313E-01
                -2.308E-01 -2.303E-01 -2.301E-01 -2.286E-01 -2.281E-01 -2.277E-01 -2.272E-01 -2.261E-01 -2.250E-01 -2.244E-01
                -2.235E-01 -2.231E-01 -2.225E-01 -2.224E-01 -2.214E-01 -2.209E-01 -2.194E-01 -2.186E-01 -2.165E-01 -2.144E-01
                -2.128E-01 -2.118E-01 -2.115E-01 -2.112E-01 -2.107E-01 -2.097E-01 -2.092E-01 -2.088E-01 -2.073E-01 -2.036E-01
                -1.932E-01 -1.663E-01 -1.608E-01 -1.429E-01 -1.261E-02 -8.189E-03  1.117E-02  2.106E-02  4.380E-02  4.610E-02
                 4.858E-02  4.901E-02  5.009E-02  5.307E-02  5.334E-02  5.468E-02  5.662E-02  5.800E-02  5.899E-02  6.010E-02
                 6.690E-02  6.946E-02  7.185E-02

   3(***/480284/480  0/480)
                -7.407E-01 -7.406E-01 -7.405E-01 -7.404E-01 -7.404E-01 -7.402E-01 -7.401E-01 -7.399E-01 -7.398E-01 -7.397E-01
                -7.397E-01 -7.395E-01 -7.393E-01 -7.392E-01 -7.391E-01 -7.390E-01 -7.388E-01 -7.388E-01 -7.385E-01 -7.381E-01
                -7.379E-01 -7.376E-01 -7.374E-01 -7.373E-01 -7.371E-01 -7.371E-01 -7.365E-01 -7.362E-01 -7.360E-01 -7.357E-01
                -7.354E-01 -7.350E-01 -7.345E-01 -7.343E-01 -7.337E-01 -7.334E-01 -7.326E-01 -7.319E-01 -7.317E-01 -7.312E-01
                -7.308E-01 -7.302E-01 -7.298E-01 -7.295E-01 -7.292E-01 -7.288E-01 -7.280E-01 -7.279E-01 -7.278E-01 -7.273E-01
                -7.270E-01 -7.265E-01 -7.262E-01 -7.258E-01 -7.256E-01 -7.253E-01 -7.249E-01 -7.244E-01 -7.243E-01 -7.240E-01
                -7.236E-01 -7.233E-01 -7.227E-01 -7.226E-01 -7.218E-01 -7.217E-01 -7.209E-01 -7.200E-01 -7.196E-01 -7.191E-01
                -7.188E-01 -7.183E-01 -7.173E-01 -7.164E-01 -7.159E-01 -7.157E-01 -7.144E-01 -7.137E-01 -7.135E-01 -7.130E-01
                -7.125E-01 -7.122E-01 -7.119E-01 -7.116E-01 -7.110E-01 -7.108E-01 -7.107E-01 -7.100E-01 -7.089E-01 -7.082E-01
                -7.077E-01 -7.070E-01 -7.059E-01 -7.045E-01 -7.041E-01 -7.027E-01 -4.610E-01 -4.587E-01 -4.568E-01 -4.552E-01
                -4.547E-01 -4.537E-01 -4.483E-01 -4.462E-01 -4.380E-01 -4.374E-01 -4.363E-01 -4.359E-01 -4.352E-01 -4.340E-01
                -4.336E-01 -4.316E-01 -4.313E-01 -4.305E-01 -4.302E-01 -4.298E-01 -4.291E-01 -4.283E-01 -4.279E-01 -4.262E-01
                -4.239E-01 -4.233E-01 -4.217E-01 -4.208E-01 -4.201E-01 -4.183E-01 -4.179E-01 -4.159E-01 -4.144E-01 -4.138E-01
                -4.131E-01 -4.101E-01 -4.078E-01 -4.070E-01 -4.040E-01 -4.015E-01 -3.999E-01 -3.990E-01 -3.971E-01 -3.961E-01
                -3.954E-01 -3.944E-01 -3.937E-01 -3.932E-01 -3.916E-01 -3.901E-01 -3.878E-01 -3.870E-01 -3.856E-01 -3.852E-01
                -3.840E-01 -3.835E-01 -3.829E-01 -3.808E-01 -3.801E-01 -3.786E-01 -3.768E-01 -3.750E-01 -3.743E-01 -3.737E-01
                -3.732E-01 -3.715E-01 -3.708E-01 -3.690E-01 -3.679E-01 -3.677E-01 -3.667E-01 -3.655E-01 -3.635E-01 -3.624E-01
                -3.613E-01 -3.596E-01 -3.588E-01 -3.579E-01 -3.560E-01 -3.557E-01 -3.553E-01 -3.549E-01 -3.547E-01 -3.541E-01
                -3.532E-01 -3.523E-01 -3.514E-01 -3.507E-01 -3.500E-01 -3.495E-01 -3.477E-01 -3.470E-01 -3.456E-01 -3.453E-01
                -3.437E-01 -3.429E-01 -3.421E-01 -3.417E-01 -3.409E-01 -3.403E-01 -3.400E-01 -3.392E-01 -3.386E-01 -3.377E-01
                -3.368E-01 -3.361E-01 -3.358E-01 -3.348E-01 -3.342E-01 -3.339E-01 -3.329E-01 -3.318E-01 -3.306E-01 -3.295E-01
                -3.289E-01 -3.284E-01 -3.271E-01 -3.260E-01 -3.252E-01 -3.236E-01 -3.230E-01 -3.225E-01 -3.211E-01 -3.204E-01
                -3.185E-01 -3.181E-01 -3.170E-01 -3.161E-01 -3.156E-01 -3.143E-01 -3.132E-01 -3.123E-01 -3.112E-01 -3.102E-01
                -3.096E-01 -3.090E-01 -3.082E-01 -3.077E-01 -3.072E-01 -3.070E-01 -3.065E-01 -3.060E-01 -3.054E-01 -3.049E-01
                -3.031E-01 -3.028E-01 -3.018E-01 -3.013E-01 -3.007E-01 -3.001E-01 -2.993E-01 -2.982E-01 -2.971E-01 -2.966E-01
                -2.961E-01 -2.958E-01 -2.948E-01 -2.940E-01 -2.936E-01 -2.930E-01 -2.920E-01 -2.910E-01 -2.899E-01 -2.896E-01
                -2.888E-01 -2.881E-01 -2.878E-01 -2.869E-01 -2.863E-01 -2.850E-01 -2.840E-01 -2.832E-01 -2.829E-01 -2.825E-01
                -2.820E-01 -2.813E-01 -2.797E-01 -2.793E-01 -2.788E-01 -2.784E-01 -2.777E-01 -2.768E-01 -2.761E-01 -2.753E-01
                -2.750E-01 -2.736E-01 -2.733E-01 -2.715E-01 -2.688E-01 -2.662E-01 -2.655E-01 -2.645E-01 -2.640E-01 -2.636E-01
                -2.632E-01 -2.622E-01 -2.615E-01 -2.608E-01 -2.602E-01 -2.598E-01 -2.588E-01 -2.580E-01 -2.573E-01 -2.568E-01
                -2.562E-01 -2.559E-01 -2.552E-01 -2.535E-01 -2.527E-01 -2.523E-01 -2.511E-01 -2.506E-01 -2.504E-01 -2.501E-01
                -2.497E-01 -2.493E-01 -2.489E-01 -2.484E-01 -2.480E-01 -2.473E-01 -2.467E-01 -2.464E-01 -2.460E-01 -2.456E-01
                -2.448E-01 -2.445E-01 -2.441E-01 -2.438E-01 -2.434E-01 -2.429E-01 -2.425E-01 -2.422E-01 -2.415E-01 -2.413E-01
                -2.407E-01 -2.402E-01 -2.397E-01 -2.394E-01 -2.389E-01 -2.385E-01 -2.381E-01 -2.377E-01 -2.370E-01 -2.364E-01
                -2.359E-01 -2.353E-01 -2.350E-01 -2.346E-01 -2.338E-01 -2.336E-01 -2.329E-01 -2.327E-01 -2.323E-01 -2.314E-01
                -2.309E-01 -2.306E-01 -2.298E-01 -2.288E-01 -2.284E-01 -2.279E-01 -2.272E-01 -2.263E-01 -2.249E-01 -2.243E-01
                -2.237E-01 -2.230E-01 -2.223E-01 -2.220E-01 -2.212E-01 -2.195E-01 -2.181E-01 -2.173E-01 -2.168E-01 -2.144E-01
                -2.134E-01 -2.116E-01 -2.114E-01 -2.113E-01 -2.104E-01 -2.102E-01 -2.096E-01 -2.088E-01 -2.072E-01 -2.039E-01
                -1.932E-01 -1.667E-01 -1.607E-01 -1.436E-01 -2.607E-03  3.544E-04  1.890E-02  2.480E-02  3.815E-02  3.989E-02
                 4.631E-02  4.867E-02  4.931E-02  5.167E-02  5.355E-02  5.854E-02  5.975E-02  6.066E-02  6.259E-02  6.357E-02
                 6.532E-02  6.832E-02  6.879E-02

   4(***/480262/480  0/480)
                -7.407E-01 -7.406E-01 -7.405E-01 -7.404E-01 -7.404E-01 -7.402E-01 -7.400E-01 -7.399E-01 -7.398E-01 -7.398E-01
                -7.397E-01 -7.396E-01 -7.395E-01 -7.394E-01 -7.393E-01 -7.391E-01 -7.389E-01 -7.387E-01 -7.385E-01 -7.384E-01
                -7.383E-01 -7.381E-01 -7.379E-01 -7.375E-01 -7.372E-01 -7.371E-01 -7.366E-01 -7.362E-01 -7.359E-01 -7.355E-01
                -7.351E-01 -7.348E-01 -7.347E-01 -7.342E-01 -7.337E-01 -7.334E-01 -7.333E-01 -7.323E-01 -7.320E-01 -7.310E-01
                -7.304E-01 -7.299E-01 -7.296E-01 -7.294E-01 -7.286E-01 -7.284E-01 -7.282E-01 -7.275E-01 -7.270E-01 -7.268E-01
                -7.263E-01 -7.259E-01 -7.256E-01 -7.252E-01 -7.249E-01 -7.248E-01 -7.246E-01 -7.243E-01 -7.241E-01 -7.238E-01
                -7.234E-01 -7.231E-01 -7.229E-01 -7.226E-01 -7.223E-01 -7.214E-01 -7.208E-01 -7.202E-01 -7.201E-01 -7.200E-01
                -7.195E-01 -7.191E-01 -7.182E-01 -7.169E-01 -7.167E-01 -7.153E-01 -7.144E-01 -7.140E-01 -7.139E-01 -7.131E-01
                -7.129E-01 -7.126E-01 -7.120E-01 -7.117E-01 -7.110E-01 -7.108E-01 -7.105E-01 -7.098E-01 -7.088E-01 -7.081E-01
                -7.079E-01 -7.074E-01 -7.059E-01 -7.047E-01 -7.042E-01 -7.032E-01 -4.602E-01 -4.573E-01 -4.556E-01 -4.550E-01
                -4.535E-01 -4.529E-01 -4.497E-01 -4.482E-01 -4.365E-01 -4.353E-01 -4.349E-01 -4.348E-01 -4.339E-01 -4.333E-01
                -4.326E-01 -4.312E-01 -4.308E-01 -4.303E-01 -4.293E-01 -4.284E-01 -4.276E-01 -4.269E-01 -4.262E-01 -4.254E-01
                -4.239E-01 -4.222E-01 -4.210E-01 -4.202E-01 -4.198E-01 -4.183E-01 -4.180E-01 -4.149E-01 -4.135E-01 -4.131E-01
                -4.112E-01 -4.098E-01 -4.092E-01 -4.046E-01 -4.031E-01 -4.010E-01 -4.003E-01 -3.984E-01 -3.966E-01 -3.952E-01
                -3.933E-01 -3.922E-01 -3.910E-01 -3.880E-01 -3.878E-01 -3.868E-01 -3.864E-01 -3.854E-01 -3.842E-01 -3.835E-01
                -3.825E-01 -3.812E-01 -3.807E-01 -3.800E-01 -3.789E-01 -3.775E-01 -3.760E-01 -3.756E-01 -3.753E-01 -3.743E-01
                -3.731E-01 -3.728E-01 -3.718E-01 -3.711E-01 -3.694E-01 -3.679E-01 -3.667E-01 -3.660E-01 -3.655E-01 -3.649E-01
                -3.643E-01 -3.637E-01 -3.618E-01 -3.613E-01 -3.600E-01 -3.594E-01 -3.592E-01 -3.577E-01 -3.541E-01 -3.529E-01
                -3.513E-01 -3.507E-01 -3.490E-01 -3.484E-01 -3.479E-01 -3.473E-01 -3.465E-01 -3.454E-01 -3.453E-01 -3.443E-01
                -3.440E-01 -3.432E-01 -3.424E-01 -3.420E-01 -3.411E-01 -3.409E-01 -3.406E-01 -3.400E-01 -3.395E-01 -3.376E-01
                -3.370E-01 -3.358E-01 -3.348E-01 -3.340E-01 -3.335E-01 -3.330E-01 -3.325E-01 -3.323E-01 -3.316E-01 -3.306E-01
                -3.306E-01 -3.301E-01 -3.295E-01 -3.288E-01 -3.287E-01 -3.279E-01 -3.262E-01 -3.241E-01 -3.229E-01 -3.222E-01
                -3.205E-01 -3.197E-01 -3.185E-01 -3.172E-01 -3.154E-01 -3.143E-01 -3.131E-01 -3.129E-01 -3.121E-01 -3.108E-01
                -3.100E-01 -3.093E-01 -3.088E-01 -3.078E-01 -3.067E-01 -3.057E-01 -3.054E-01 -3.048E-01 -3.044E-01 -3.041E-01
                -3.037E-01 -3.034E-01 -3.025E-01 -3.012E-01 -3.006E-01 -2.993E-01 -2.987E-01 -2.982E-01 -2.977E-01 -2.974E-01
                -2.964E-01 -2.960E-01 -2.946E-01 -2.943E-01 -2.937E-01 -2.930E-01 -2.928E-01 -2.919E-01 -2.916E-01 -2.910E-01
                -2.905E-01 -2.894E-01 -2.884E-01 -2.870E-01 -2.863E-01 -2.858E-01 -2.853E-01 -2.847E-01 -2.844E-01 -2.828E-01
                -2.821E-01 -2.813E-01 -2.813E-01 -2.805E-01 -2.795E-01 -2.790E-01 -2.787E-01 -2.785E-01 -2.776E-01 -2.773E-01
                -2.762E-01 -2.760E-01 -2.746E-01 -2.731E-01 -2.693E-01 -2.665E-01 -2.654E-01 -2.647E-01 -2.644E-01 -2.641E-01
                -2.633E-01 -2.628E-01 -2.616E-01 -2.608E-01 -2.605E-01 -2.599E-01 -2.592E-01 -2.586E-01 -2.582E-01 -2.577E-01
                -2.574E-01 -2.561E-01 -2.537E-01 -2.533E-01 -2.525E-01 -2.517E-01 -2.509E-01 -2.504E-01 -2.502E-01 -2.498E-01
                -2.495E-01 -2.488E-01 -2.484E-01 -2.480E-01 -2.479E-01 -2.473E-01 -2.470E-01 -2.467E-01 -2.462E-01 -2.456E-01
                -2.450E-01 -2.447E-01 -2.441E-01 -2.437E-01 -2.434E-01 -2.431E-01 -2.423E-01 -2.419E-01 -2.412E-01 -2.407E-01
                -2.407E-01 -2.404E-01 -2.400E-01 -2.392E-01 -2.389E-01 -2.381E-01 -2.377E-01 -2.373E-01 -2.368E-01 -2.363E-01
                -2.358E-01 -2.351E-01 -2.350E-01 -2.347E-01 -2.343E-01 -2.337E-01 -2.333E-01 -2.331E-01 -2.325E-01 -2.322E-01
                -2.313E-01 -2.305E-01 -2.293E-01 -2.289E-01 -2.284E-01 -2.280E-01 -2.273E-01 -2.262E-01 -2.251E-01 -2.246E-01
                -2.243E-01 -2.231E-01 -2.222E-01 -2.217E-01 -2.202E-01 -2.189E-01 -2.179E-01 -2.169E-01 -2.152E-01 -2.145E-01
                -2.140E-01 -2.117E-01 -2.114E-01 -2.113E-01 -2.111E-01 -2.101E-01 -2.097E-01 -2.089E-01 -2.071E-01 -2.041E-01
                -1.933E-01 -1.669E-01 -1.606E-01 -1.441E-01  7.509E-03  9.632E-03  2.661E-02  2.782E-02  2.905E-02  3.004E-02
                 4.003E-02  4.215E-02  5.374E-02  5.588E-02  5.781E-02  6.085E-02  6.272E-02  6.322E-02  6.451E-02  6.555E-02
                 6.621E-02  6.670E-02  6.725E-02

   5(***/480240/480  0/480)
                -7.408E-01 -7.406E-01 -7.405E-01 -7.403E-01 -7.402E-01 -7.402E-01 -7.401E-01 -7.400E-01 -7.399E-01 -7.398E-01
                -7.397E-01 -7.397E-01 -7.395E-01 -7.394E-01 -7.391E-01 -7.390E-01 -7.389E-01 -7.389E-01 -7.388E-01 -7.385E-01
                -7.384E-01 -7.383E-01 -7.381E-01 -7.376E-01 -7.371E-01 -7.371E-01 -7.364E-01 -7.362E-01 -7.358E-01 -7.354E-01
                -7.350E-01 -7.348E-01 -7.345E-01 -7.342E-01 -7.340E-01 -7.335E-01 -7.332E-01 -7.328E-01 -7.320E-01 -7.310E-01
                -7.302E-01 -7.297E-01 -7.295E-01 -7.290E-01 -7.289E-01 -7.285E-01 -7.276E-01 -7.273E-01 -7.272E-01 -7.263E-01
                -7.260E-01 -7.259E-01 -7.257E-01 -7.250E-01 -7.247E-01 -7.245E-01 -7.243E-01 -7.240E-01 -7.235E-01 -7.233E-01
                -7.233E-01 -7.231E-01 -7.230E-01 -7.225E-01 -7.224E-01 -7.216E-01 -7.212E-01 -7.211E-01 -7.211E-01 -7.200E-01
                -7.190E-01 -7.184E-01 -7.182E-01 -7.176E-01 -7.175E-01 -7.148E-01 -7.146E-01 -7.142E-01 -7.139E-01 -7.134E-01
                -7.131E-01 -7.127E-01 -7.120E-01 -7.117E-01 -7.109E-01 -7.108E-01 -7.105E-01 -7.093E-01 -7.089E-01 -7.083E-01
                -7.081E-01 -7.075E-01 -7.058E-01 -7.048E-01 -7.043E-01 -7.034E-01 -4.599E-01 -4.562E-01 -4.562E-01 -4.546E-01
                -4.530E-01 -4.512E-01 -4.510E-01 -4.495E-01 -4.362E-01 -4.349E-01 -4.345E-01 -4.341E-01 -4.337E-01 -4.324E-01
                -4.318E-01 -4.309E-01 -4.308E-01 -4.303E-01 -4.302E-01 -4.278E-01 -4.264E-01 -4.251E-01 -4.249E-01 -4.239E-01
                -4.237E-01 -4.230E-01 -4.226E-01 -4.214E-01 -4.198E-01 -4.197E-01 -4.188E-01 -4.131E-01 -4.127E-01 -4.119E-01
                -4.110E-01 -4.086E-01 -4.070E-01 -4.053E-01 -4.048E-01 -4.011E-01 -4.003E-01 -3.986E-01 -3.975E-01 -3.921E-01
                -3.906E-01 -3.900E-01 -3.898E-01 -3.894E-01 -3.884E-01 -3.881E-01 -3.867E-01 -3.833E-01 -3.825E-01 -3.812E-01
                -3.811E-01 -3.795E-01 -3.793E-01 -3.785E-01 -3.783E-01 -3.778E-01 -3.776E-01 -3.770E-01 -3.757E-01 -3.738E-01
                -3.729E-01 -3.717E-01 -3.708E-01 -3.703E-01 -3.698E-01 -3.695E-01 -3.682E-01 -3.670E-01 -3.666E-01 -3.658E-01
                -3.655E-01 -3.639E-01 -3.633E-01 -3.631E-01 -3.628E-01 -3.618E-01 -3.616E-01 -3.590E-01 -3.543E-01 -3.523E-01
                -3.507E-01 -3.494E-01 -3.491E-01 -3.480E-01 -3.474E-01 -3.462E-01 -3.461E-01 -3.443E-01 -3.441E-01 -3.425E-01
                -3.423E-01 -3.421E-01 -3.417E-01 -3.415E-01 -3.408E-01 -3.406E-01 -3.403E-01 -3.392E-01 -3.387E-01 -3.380E-01
                -3.379E-01 -3.375E-01 -3.371E-01 -3.360E-01 -3.342E-01 -3.339E-01 -3.332E-01 -3.325E-01 -3.324E-01 -3.317E-01
                -3.313E-01 -3.299E-01 -3.296E-01 -3.281E-01 -3.278E-01 -3.269E-01 -3.260E-01 -3.254E-01 -3.250E-01 -3.240E-01
                -3.237E-01 -3.208E-01 -3.200E-01 -3.169E-01 -3.153E-01 -3.137E-01 -3.132E-01 -3.126E-01 -3.116E-01 -3.107E-01
                -3.101E-01 -3.090E-01 -3.088E-01 -3.078E-01 -3.073E-01 -3.072E-01 -3.054E-01 -3.043E-01 -3.037E-01 -3.035E-01
                -3.025E-01 -3.021E-01 -3.013E-01 -3.012E-01 -3.005E-01 -2.994E-01 -2.991E-01 -2.983E-01 -2.979E-01 -2.972E-01
                -2.969E-01 -2.968E-01 -2.952E-01 -2.945E-01 -2.942E-01 -2.930E-01 -2.927E-01 -2.922E-01 -2.915E-01 -2.906E-01
                -2.900E-01 -2.896E-01 -2.884E-01 -2.882E-01 -2.875E-01 -2.872E-01 -2.864E-01 -2.847E-01 -2.845E-01 -2.843E-01
                -2.827E-01 -2.822E-01 -2.815E-01 -2.802E-01 -2.792E-01 -2.791E-01 -2.787E-01 -2.786E-01 -2.784E-01 -2.777E-01
                -2.767E-01 -2.754E-01 -2.752E-01 -2.746E-01 -2.695E-01 -2.666E-01 -2.658E-01 -2.651E-01 -2.644E-01 -2.638E-01
                -2.631E-01 -2.622E-01 -2.619E-01 -2.613E-01 -2.600E-01 -2.600E-01 -2.593E-01 -2.592E-01 -2.586E-01 -2.581E-01
                -2.580E-01 -2.558E-01 -2.535E-01 -2.526E-01 -2.522E-01 -2.519E-01 -2.508E-01 -2.507E-01 -2.498E-01 -2.497E-01
                -2.495E-01 -2.484E-01 -2.484E-01 -2.480E-01 -2.476E-01 -2.473E-01 -2.472E-01 -2.464E-01 -2.460E-01 -2.459E-01
                -2.453E-01 -2.447E-01 -2.445E-01 -2.437E-01 -2.436E-01 -2.431E-01 -2.421E-01 -2.416E-01 -2.408E-01 -2.407E-01
                -2.406E-01 -2.404E-01 -2.401E-01 -2.393E-01 -2.383E-01 -2.381E-01 -2.374E-01 -2.368E-01 -2.368E-01 -2.364E-01
                -2.358E-01 -2.358E-01 -2.347E-01 -2.345E-01 -2.343E-01 -2.342E-01 -2.335E-01 -2.333E-01 -2.327E-01 -2.319E-01
                -2.318E-01 -2.304E-01 -2.292E-01 -2.290E-01 -2.285E-01 -2.276E-01 -2.271E-01 -2.261E-01 -2.258E-01 -2.247E-01
                -2.244E-01 -2.231E-01 -2.222E-01 -2.215E-01 -2.193E-01 -2.190E-01 -2.183E-01 -2.161E-01 -2.153E-01 -2.141E-01
                -2.133E-01 -2.131E-01 -2.114E-01 -2.113E-01 -2.111E-01 -2.100E-01 -2.097E-01 -2.089E-01 -2.071E-01 -2.042E-01
                -1.933E-01 -1.670E-01 -1.605E-01 -1.443E-01  1.749E-02  1.773E-02  1.899E-02  2.010E-02  3.374E-02  3.398E-02
                 3.460E-02  3.539E-02  5.765E-02  5.899E-02  5.966E-02  6.094E-02  6.180E-02  6.221E-02  6.254E-02  6.360E-02
                 6.855E-02  7.036E-02  7.089E-02

 LINE  2 (-0.50 0.50 0.00: 0.00 0.00 0.00) IN TERMS OF PRIMITIVE LATTICE VECTORS
  11 POINTS - SHRINKING_FACTOR1320
 CARTESIAN COORD. (-0.067 0.271-0.016):( 0.000 0.000 0.000) STEP  0.0255


    ALPHA      ELECTRONS

   1(***/***600/***  0/***)
                -7.407E-01 -7.406E-01 -7.406E-01 -7.405E-01 -7.404E-01 -7.402E-01 -7.400E-01 -7.400E-01 -7.399E-01 -7.398E-01
                -7.397E-01 -7.396E-01 -7.395E-01 -7.395E-01 -7.394E-01 -7.393E-01 -7.391E-01 -7.388E-01 -7.386E-01 -7.385E-01
                -7.383E-01 -7.382E-01 -7.380E-01 -7.377E-01 -7.374E-01 -7.372E-01 -7.370E-01 -7.364E-01 -7.359E-01 -7.357E-01
                -7.354E-01 -7.351E-01 -7.346E-01 -7.344E-01 -7.339E-01 -7.338E-01 -7.333E-01 -7.330E-01 -7.319E-01 -7.316E-01
                -7.305E-01 -7.302E-01 -7.298E-01 -7.296E-01 -7.290E-01 -7.286E-01 -7.283E-01 -7.278E-01 -7.270E-01 -7.269E-01
                -7.265E-01 -7.260E-01 -7.256E-01 -7.254E-01 -7.249E-01 -7.248E-01 -7.246E-01 -7.244E-01 -7.242E-01 -7.239E-01
                -7.235E-01 -7.235E-01 -7.230E-01 -7.226E-01 -7.225E-01 -7.215E-01 -7.211E-01 -7.208E-01 -7.201E-01 -7.201E-01
                -7.195E-01 -7.192E-01 -7.184E-01 -7.173E-01 -7.167E-01 -7.154E-01 -7.144E-01 -7.143E-01 -7.140E-01 -7.132E-01
                -7.130E-01 -7.127E-01 -7.122E-01 -7.118E-01 -7.110E-01 -7.108E-01 -7.105E-01 -7.099E-01 -7.090E-01 -7.083E-01
                -7.081E-01 -7.077E-01 -7.063E-01 -7.056E-01 -7.050E-01 -7.040E-01 -4.632E-01 -4.574E-01 -4.558E-01 -4.552E-01
                -4.544E-01 -4.533E-01 -4.502E-01 -4.487E-01 -4.382E-01 -4.362E-01 -4.357E-01 -4.356E-01 -4.344E-01 -4.340E-01
                -4.328E-01 -4.322E-01 -4.314E-01 -4.306E-01 -4.296E-01 -4.291E-01 -4.283E-01 -4.273E-01 -4.266E-01 -4.262E-01
                -4.241E-01 -4.227E-01 -4.214E-01 -4.207E-01 -4.205E-01 -4.193E-01 -4.182E-01 -4.159E-01 -4.142E-01 -4.133E-01
                -4.113E-01 -4.105E-01 -4.099E-01 -4.056E-01 -4.042E-01 -4.016E-01 -4.011E-01 -3.994E-01 -3.979E-01 -3.968E-01
                -3.949E-01 -3.931E-01 -3.919E-01 -3.898E-01 -3.884E-01 -3.879E-01 -3.874E-01 -3.866E-01 -3.849E-01 -3.846E-01
                -3.835E-01 -3.827E-01 -3.819E-01 -3.809E-01 -3.800E-01 -3.788E-01 -3.786E-01 -3.768E-01 -3.760E-01 -3.756E-01
                -3.743E-01 -3.737E-01 -3.732E-01 -3.721E-01 -3.713E-01 -3.702E-01 -3.682E-01 -3.671E-01 -3.661E-01 -3.659E-01
                -3.655E-01 -3.648E-01 -3.645E-01 -3.637E-01 -3.627E-01 -3.603E-01 -3.599E-01 -3.595E-01 -3.592E-01 -3.576E-01
                -3.569E-01 -3.548E-01 -3.524E-01 -3.515E-01 -3.502E-01 -3.490E-01 -3.488E-01 -3.480E-01 -3.471E-01 -3.463E-01
                -3.456E-01 -3.453E-01 -3.447E-01 -3.444E-01 -3.434E-01 -3.427E-01 -3.422E-01 -3.415E-01 -3.413E-01 -3.407E-01
                -3.395E-01 -3.383E-01 -3.367E-01 -3.362E-01 -3.359E-01 -3.345E-01 -3.338E-01 -3.334E-01 -3.328E-01 -3.323E-01
                -3.315E-01 -3.312E-01 -3.307E-01 -3.304E-01 -3.301E-01 -3.294E-01 -3.292E-01 -3.277E-01 -3.268E-01 -3.253E-01
                -3.235E-01 -3.229E-01 -3.215E-01 -3.207E-01 -3.199E-01 -3.181E-01 -3.178E-01 -3.162E-01 -3.153E-01 -3.143E-01
                -3.128E-01 -3.119E-01 -3.116E-01 -3.109E-01 -3.099E-01 -3.090E-01 -3.081E-01 -3.073E-01 -3.060E-01 -3.059E-01
                -3.055E-01 -3.051E-01 -3.045E-01 -3.041E-01 -3.039E-01 -3.029E-01 -3.017E-01 -3.001E-01 -2.992E-01 -2.990E-01
                -2.983E-01 -2.980E-01 -2.975E-01 -2.972E-01 -2.966E-01 -2.954E-01 -2.947E-01 -2.941E-01 -2.935E-01 -2.932E-01
                -2.929E-01 -2.920E-01 -2.917E-01 -2.910E-01 -2.905E-01 -2.891E-01 -2.880E-01 -2.867E-01 -2.864E-01 -2.859E-01
                -2.853E-01 -2.844E-01 -2.840E-01 -2.832E-01 -2.822E-01 -2.816E-01 -2.804E-01 -2.800E-01 -2.798E-01 -2.792E-01
                -2.789E-01 -2.777E-01 -2.774E-01 -2.767E-01 -2.761E-01 -2.756E-01 -2.737E-01 -2.700E-01 -2.686E-01 -2.668E-01
                -2.664E-01 -2.654E-01 -2.651E-01 -2.643E-01 -2.640E-01 -2.632E-01 -2.617E-01 -2.613E-01 -2.608E-01 -2.599E-01
                -2.594E-01 -2.588E-01 -2.584E-01 -2.577E-01 -2.574E-01 -2.555E-01 -2.545E-01 -2.543E-01 -2.534E-01 -2.528E-01
                -2.518E-01 -2.516E-01 -2.508E-01 -2.504E-01 -2.499E-01 -2.495E-01 -2.490E-01 -2.485E-01 -2.479E-01 -2.474E-01
                -2.470E-01 -2.467E-01 -2.466E-01 -2.460E-01 -2.456E-01 -2.450E-01 -2.447E-01 -2.442E-01 -2.438E-01 -2.435E-01
                -2.426E-01 -2.420E-01 -2.418E-01 -2.413E-01 -2.410E-01 -2.406E-01 -2.404E-01 -2.400E-01 -2.387E-01 -2.384E-01
                -2.378E-01 -2.372E-01 -2.371E-01 -2.363E-01 -2.355E-01 -2.352E-01 -2.350E-01 -2.349E-01 -2.342E-01 -2.339E-01
                -2.335E-01 -2.332E-01 -2.328E-01 -2.321E-01 -2.317E-01 -2.302E-01 -2.299E-01 -2.294E-01 -2.287E-01 -2.274E-01
                -2.266E-01 -2.259E-01 -2.249E-01 -2.244E-01 -2.228E-01 -2.224E-01 -2.217E-01 -2.207E-01 -2.201E-01 -2.186E-01
                -2.175E-01 -2.160E-01 -2.150E-01 -2.148E-01 -2.140E-01 -2.127E-01 -2.115E-01 -2.114E-01 -2.111E-01 -2.102E-01
                -2.097E-01 -2.091E-01 -2.070E-01 -2.012E-01  6.975E-03  8.524E-03  2.560E-02  2.727E-02  2.833E-02  2.892E-02
                 3.931E-02  4.113E-02  5.272E-02  5.473E-02  5.747E-02  5.979E-02  6.168E-02  6.236E-02  6.384E-02  6.459E-02
                 6.569E-02  6.629E-02  6.695E-02

   2(***/***540/***  0/***)
                -7.407E-01 -7.407E-01 -7.406E-01 -7.405E-01 -7.404E-01 -7.402E-01 -7.401E-01 -7.400E-01 -7.398E-01 -7.397E-01
                -7.397E-01 -7.395E-01 -7.394E-01 -7.393E-01 -7.392E-01 -7.391E-01 -7.389E-01 -7.389E-01 -7.387E-01 -7.382E-01
                -7.380E-01 -7.378E-01 -7.376E-01 -7.375E-01 -7.373E-01 -7.372E-01 -7.367E-01 -7.364E-01 -7.361E-01 -7.358E-01
                -7.356E-01 -7.353E-01 -7.347E-01 -7.343E-01 -7.338E-01 -7.337E-01 -7.330E-01 -7.327E-01 -7.317E-01 -7.315E-01
                -7.312E-01 -7.305E-01 -7.299E-01 -7.297E-01 -7.294E-01 -7.292E-01 -7.283E-01 -7.280E-01 -7.278E-01 -7.273E-01
                -7.271E-01 -7.265E-01 -7.262E-01 -7.261E-01 -7.257E-01 -7.253E-01 -7.250E-01 -7.245E-01 -7.243E-01 -7.242E-01
                -7.238E-01 -7.234E-01 -7.232E-01 -7.227E-01 -7.220E-01 -7.217E-01 -7.212E-01 -7.204E-01 -7.198E-01 -7.192E-01
                -7.188E-01 -7.183E-01 -7.174E-01 -7.167E-01 -7.160E-01 -7.157E-01 -7.145E-01 -7.140E-01 -7.135E-01 -7.131E-01
                -7.127E-01 -7.125E-01 -7.121E-01 -7.116E-01 -7.110E-01 -7.109E-01 -7.107E-01 -7.101E-01 -7.090E-01 -7.083E-01
                -7.079E-01 -7.073E-01 -7.064E-01 -7.054E-01 -7.048E-01 -7.034E-01 -4.639E-01 -4.587E-01 -4.570E-01 -4.556E-01
                -4.552E-01 -4.542E-01 -4.489E-01 -4.468E-01 -4.391E-01 -4.382E-01 -4.368E-01 -4.366E-01 -4.362E-01 -4.350E-01
                -4.340E-01 -4.324E-01 -4.318E-01 -4.311E-01 -4.307E-01 -4.302E-01 -4.297E-01 -4.286E-01 -4.282E-01 -4.270E-01
                -4.243E-01 -4.236E-01 -4.225E-01 -4.213E-01 -4.206E-01 -4.189E-01 -4.183E-01 -4.166E-01 -4.153E-01 -4.143E-01
                -4.136E-01 -4.105E-01 -4.087E-01 -4.082E-01 -4.044E-01 -4.022E-01 -4.013E-01 -4.000E-01 -3.988E-01 -3.968E-01
[...]
-rw-r--r-- 1 felipe users         0 Nov 28 20:06 fort.61.pe07
-rw-r--r-- 1 felipe users         0 Nov 28 20:06 fort.61.pe08
-rw-r--r-- 1 felipe users         0 Nov 28 20:06 fort.61.pe09
-rw-r--r-- 1 felipe users         0 Nov 28 20:06 fort.61.pe10
-rw-r--r-- 1 felipe users         0 Nov 28 20:06 fort.61.pe11
-rw-r--r-- 1 felipe users         0 Nov 28 20:06 fort.61.pe12
-rw-r--r-- 1 felipe users         0 Nov 28 20:06 fort.61.pe13
-rw-r--r-- 1 felipe users         0 Nov 28 20:06 fort.61.pe14
-rw-r--r-- 1 felipe users         0 Nov 28 20:06 fort.61.pe15
-rw-r--r-- 1 felipe users         0 Nov 28 20:06 fort.61.pe16
-rw-r--r-- 1 felipe users         0 Nov 28 20:06 fort.61.pe17
-rw-r--r-- 1 felipe users         0 Nov 28 20:06 fort.61.pe18
-rw-r--r-- 1 felipe users         0 Nov 28 20:06 fort.61.pe19
-rw-r--r-- 1 felipe users         0 Nov 28 20:06 fort.61.pe20
-rw-r--r-- 1 felipe users         0 Nov 28 20:06 fort.61.pe21
-rw-r--r-- 1 felipe users         0 Nov 28 20:06 fort.61.pe22
-rw-r--r-- 1 felipe users         0 Nov 28 20:06 fort.61.pe23
-rw-r--r-- 1 felipe users         0 Nov 28 20:06 fort.61.pe24
-rw-r--r-- 1 felipe users         0 Nov 28 20:06 fort.61.pe25
-rw-r--r-- 1 felipe users         0 Nov 28 20:06 fort.61.pe26
-rw-r--r-- 1 felipe users         0 Nov 28 20:06 fort.61.pe27
-rw-r--r-- 1 felipe users         0 Nov 28 20:06 fort.61.pe28
-rw-r--r-- 1 felipe users         0 Nov 28 20:06 fort.61.pe29
-rw-r--r-- 1 felipe users         0 Nov 28 20:06 fort.61.pe30
-rw-r--r-- 1 felipe users         0 Nov 28 20:06 fort.61.pe31
-rw-r--r-- 1 felipe users         0 Nov 28 20:06 fort.61.pe32
-rw-r--r-- 1 felipe users         0 Nov 28 20:06 fort.61.pe33
-rw-r--r-- 1 felipe users         0 Nov 28 20:06 fort.61.pe34
-rw-r--r-- 1 felipe users         0 Nov 28 20:06 fort.61.pe35
-rw-r--r-- 1 felipe users         0 Nov 28 20:06 fort.61.pe36
-rw-r--r-- 1 felipe users         0 Nov 28 20:06 fort.61.pe37
-rw-r--r-- 1 felipe users         0 Nov 28 20:06 fort.61.pe38
-rw-r--r-- 1 felipe users         0 Nov 28 20:06 fort.61.pe39
-rw-r--r-- 1 felipe users         0 Nov 28 20:06 fort.61.pe40
-rw-r--r-- 1 felipe users         0 Nov 28 20:06 fort.61.pe41
-rw-r--r-- 1 felipe users         0 Nov 28 20:06 fort.61.pe42
-rw-r--r-- 1 felipe users         0 Nov 28 20:06 fort.61.pe43
-rw-r--r-- 1 felipe users         0 Nov 28 20:06 fort.61.pe44
-rw-r--r-- 1 felipe users         0 Nov 28 20:06 fort.61.pe45
-rw-r--r-- 1 felipe users         0 Nov 28 20:06 fort.61.pe46
-rw-r--r-- 1 felipe users         0 Nov 28 20:06 fort.61.pe47
-rw-r--r-- 1 felipe users         0 Nov 28 20:06 fort.61.pe48
-rw-r--r-- 1 felipe users         0 Nov 28 20:06 fort.61.pe49
-rw-r--r-- 1 felipe users         0 Nov 28 20:06 fort.61.pe50
-rw-r--r-- 1 felipe users         0 Nov 28 20:06 fort.61.pe51
-rw-r--r-- 1 felipe users         0 Nov 28 20:06 fort.61.pe52
-rw-r--r-- 1 felipe users         0 Nov 28 20:06 fort.61.pe53
-rw-r--r-- 1 felipe users         0 Nov 28 20:06 fort.61.pe54
-rw-r--r-- 1 felipe users         0 Nov 28 20:06 fort.61.pe55
-rw-r--r-- 1 felipe users         0 Nov 28 20:06 fort.61.pe56
-rw-r--r-- 1 felipe users         0 Nov 28 20:06 fort.61.pe57
-rw-r--r-- 1 felipe users         0 Nov 28 20:06 fort.61.pe58
-rw-r--r-- 1 felipe users         0 Nov 28 20:06 fort.61.pe59
-rw-r--r-- 1 felipe users         0 Nov 28 20:06 fort.61.pe60
-rw-r--r-- 1 felipe users         0 Nov 28 20:06 fort.61.pe61
-rw-r--r-- 1 felipe users         0 Nov 28 20:06 fort.61.pe62
-rw-r--r-- 1 felipe users         0 Nov 28 20:06 fort.61.pe63
-rw-r--r-- 1 felipe users         0 Nov 28 20:06 fort.62.pe00
-rw-r--r-- 1 felipe users         0 Nov 28 20:06 fort.62.pe01
-rw-r--r-- 1 felipe users         0 Nov 28 20:06 fort.62.pe02
-rw-r--r-- 1 felipe users         0 Nov 28 20:06 fort.62.pe03
-rw-r--r-- 1 felipe users         0 Nov 28 20:06 fort.62.pe04
-rw-r--r-- 1 felipe users         0 Nov 28 20:06 fort.62.pe05
-rw-r--r-- 1 felipe users         0 Nov 28 20:06 fort.62.pe06
-rw-r--r-- 1 felipe users         0 Nov 28 20:06 fort.62.pe07
-rw-r--r-- 1 felipe users         0 Nov 28 20:06 fort.62.pe08
-rw-r--r-- 1 felipe users         0 Nov 28 20:06 fort.62.pe09
-rw-r--r-- 1 felipe users         0 Nov 28 20:06 fort.62.pe10
-rw-r--r-- 1 felipe users         0 Nov 28 20:06 fort.62.pe11
-rw-r--r-- 1 felipe users         0 Nov 28 20:06 fort.62.pe12
-rw-r--r-- 1 felipe users         0 Nov 28 20:06 fort.62.pe13
-rw-r--r-- 1 felipe users         0 Nov 28 20:06 fort.62.pe14
-rw-r--r-- 1 felipe users         0 Nov 28 20:06 fort.62.pe15
-rw-r--r-- 1 felipe users         0 Nov 28 20:06 fort.62.pe16
-rw-r--r-- 1 felipe users         0 Nov 28 20:06 fort.62.pe17
-rw-r--r-- 1 felipe users         0 Nov 28 20:06 fort.62.pe18
-rw-r--r-- 1 felipe users         0 Nov 28 20:06 fort.62.pe19
-rw-r--r-- 1 felipe users         0 Nov 28 20:06 fort.62.pe20
-rw-r--r-- 1 felipe users         0 Nov 28 20:06 fort.62.pe21
-rw-r--r-- 1 felipe users         0 Nov 28 20:06 fort.62.pe22
-rw-r--r-- 1 felipe users         0 Nov 28 20:06 fort.62.pe23
-rw-r--r-- 1 felipe users         0 Nov 28 20:06 fort.62.pe24
-rw-r--r-- 1 felipe users         0 Nov 28 20:06 fort.62.pe25
-rw-r--r-- 1 felipe users         0 Nov 28 20:06 fort.62.pe26
-rw-r--r-- 1 felipe users         0 Nov 28 20:06 fort.62.pe27
-rw-r--r-- 1 felipe users         0 Nov 28 20:06 fort.62.pe28
-rw-r--r-- 1 felipe users         0 Nov 28 20:06 fort.62.pe29
-rw-r--r-- 1 felipe users         0 Nov 28 20:06 fort.62.pe30
-rw-r--r-- 1 felipe users         0 Nov 28 20:06 fort.62.pe31
-rw-r--r-- 1 felipe users         0 Nov 28 20:06 fort.62.pe32
-rw-r--r-- 1 felipe users         0 Nov 28 20:06 fort.62.pe33
-rw-r--r-- 1 felipe users         0 Nov 28 20:06 fort.62.pe34
-rw-r--r-- 1 felipe users         0 Nov 28 20:06 fort.62.pe35
-rw-r--r-- 1 felipe users         0 Nov 28 20:06 fort.62.pe36
-rw-r--r-- 1 felipe users         0 Nov 28 20:06 fort.62.pe37
-rw-r--r-- 1 felipe users         0 Nov 28 20:06 fort.62.pe38
-rw-r--r-- 1 felipe users         0 Nov 28 20:06 fort.62.pe39
-rw-r--r-- 1 felipe users         0 Nov 28 20:06 fort.62.pe40
-rw-r--r-- 1 felipe users         0 Nov 28 20:06 fort.62.pe41
-rw-r--r-- 1 felipe users         0 Nov 28 20:06 fort.62.pe42
-rw-r--r-- 1 felipe users         0 Nov 28 20:06 fort.62.pe43
-rw-r--r-- 1 felipe users         0 Nov 28 20:06 fort.62.pe44
-rw-r--r-- 1 felipe users         0 Nov 28 20:06 fort.62.pe45
-rw-r--r-- 1 felipe users         0 Nov 28 20:06 fort.62.pe46
-rw-r--r-- 1 felipe users         0 Nov 28 20:06 fort.62.pe47
-rw-r--r-- 1 felipe users         0 Nov 28 20:06 fort.62.pe48
-rw-r--r-- 1 felipe users         0 Nov 28 20:06 fort.62.pe49
-rw-r--r-- 1 felipe users         0 Nov 28 20:06 fort.62.pe50
-rw-r--r-- 1 felipe users         0 Nov 28 20:06 fort.62.pe51
-rw-r--r-- 1 felipe users         0 Nov 28 20:06 fort.62.pe52
-rw-r--r-- 1 felipe users         0 Nov 28 20:06 fort.62.pe53
-rw-r--r-- 1 felipe users         0 Nov 28 20:06 fort.62.pe54
-rw-r--r-- 1 felipe users         0 Nov 28 20:06 fort.62.pe55
-rw-r--r-- 1 felipe users         0 Nov 28 20:06 fort.62.pe56
-rw-r--r-- 1 felipe users         0 Nov 28 20:06 fort.62.pe57
-rw-r--r-- 1 felipe users         0 Nov 28 20:06 fort.62.pe58
-rw-r--r-- 1 felipe users         0 Nov 28 20:06 fort.62.pe59
-rw-r--r-- 1 felipe users         0 Nov 28 20:06 fort.62.pe60
-rw-r--r-- 1 felipe users         0 Nov 28 20:06 fort.62.pe61
-rw-r--r-- 1 felipe users         0 Nov 28 20:06 fort.62.pe62
-rw-r--r-- 1 felipe users         0 Nov 28 20:06 fort.62.pe63
-rw-r--r-- 1 felipe users         0 Nov 28 20:06 fort.75.pe00
-rw-r--r-- 1 felipe users         0 Nov 28 20:06 fort.75.pe01
-rw-r--r-- 1 felipe users         0 Nov 28 20:06 fort.75.pe02
-rw-r--r-- 1 felipe users         0 Nov 28 20:06 fort.75.pe03
-rw-r--r-- 1 felipe users         0 Nov 28 20:06 fort.75.pe04
-rw-r--r-- 1 felipe users         0 Nov 28 20:06 fort.75.pe05
-rw-r--r-- 1 felipe users         0 Nov 28 20:06 fort.75.pe06
-rw-r--r-- 1 felipe users         0 Nov 28 20:06 fort.75.pe07
-rw-r--r-- 1 felipe users         0 Nov 28 20:06 fort.75.pe08
-rw-r--r-- 1 felipe users         0 Nov 28 20:06 fort.75.pe09
-rw-r--r-- 1 felipe users         0 Nov 28 20:06 fort.75.pe10
-rw-r--r-- 1 felipe users         0 Nov 28 20:06 fort.75.pe11
-rw-r--r-- 1 felipe users         0 Nov 28 20:06 fort.75.pe12
-rw-r--r-- 1 felipe users         0 Nov 28 20:06 fort.75.pe13
-rw-r--r-- 1 felipe users         0 Nov 28 20:06 fort.75.pe14
-rw-r--r-- 1 felipe users         0 Nov 28 20:06 fort.75.pe15
-rw-r--r-- 1 felipe users         0 Nov 28 20:06 fort.75.pe16
-rw-r--r-- 1 felipe users         0 Nov 28 20:06 fort.75.pe17
-rw-r--r-- 1 felipe users         0 Nov 28 20:06 fort.75.pe18
-rw-r--r-- 1 felipe users         0 Nov 28 20:06 fort.75.pe19
-rw-r--r-- 1 felipe users         0 Nov 28 20:06 fort.75.pe20
-rw-r--r-- 1 felipe users         0 Nov 28 20:06 fort.75.pe21
-rw-r--r-- 1 felipe users         0 Nov 28 20:06 fort.75.pe22
-rw-r--r-- 1 felipe users         0 Nov 28 20:06 fort.75.pe23
-rw-r--r-- 1 felipe users         0 Nov 28 20:06 fort.75.pe24
-rw-r--r-- 1 felipe users         0 Nov 28 20:06 fort.75.pe25
-rw-r--r-- 1 felipe users         0 Nov 28 20:06 fort.75.pe26
-rw-r--r-- 1 felipe users         0 Nov 28 20:06 fort.75.pe27
-rw-r--r-- 1 felipe users         0 Nov 28 20:06 fort.75.pe28
-rw-r--r-- 1 felipe users         0 Nov 28 20:06 fort.75.pe29
-rw-r--r-- 1 felipe users         0 Nov 28 20:06 fort.75.pe30
-rw-r--r-- 1 felipe users         0 Nov 28 20:06 fort.75.pe31
-rw-r--r-- 1 felipe users         0 Nov 28 20:06 fort.75.pe32
-rw-r--r-- 1 felipe users         0 Nov 28 20:06 fort.75.pe33
-rw-r--r-- 1 felipe users         0 Nov 28 20:06 fort.75.pe34
-rw-r--r-- 1 felipe users         0 Nov 28 20:06 fort.75.pe35
-rw-r--r-- 1 felipe users         0 Nov 28 20:06 fort.75.pe36
-rw-r--r-- 1 felipe users         0 Nov 28 20:06 fort.75.pe37
-rw-r--r-- 1 felipe users         0 Nov 28 20:06 fort.75.pe38
-rw-r--r-- 1 felipe users         0 Nov 28 20:06 fort.75.pe39
-rw-r--r-- 1 felipe users         0 Nov 28 20:06 fort.75.pe40
-rw-r--r-- 1 felipe users         0 Nov 28 20:06 fort.75.pe41
-rw-r--r-- 1 felipe users         0 Nov 28 20:06 fort.75.pe42
-rw-r--r-- 1 felipe users         0 Nov 28 20:06 fort.75.pe43
-rw-r--r-- 1 felipe users         0 Nov 28 20:06 fort.75.pe44
-rw-r--r-- 1 felipe users         0 Nov 28 20:06 fort.75.pe45
-rw-r--r-- 1 felipe users         0 Nov 28 20:06 fort.75.pe46
-rw-r--r-- 1 felipe users         0 Nov 28 20:06 fort.75.pe47
-rw-r--r-- 1 felipe users         0 Nov 28 20:06 fort.75.pe48
-rw-r--r-- 1 felipe users         0 Nov 28 20:06 fort.75.pe49
-rw-r--r-- 1 felipe users         0 Nov 28 20:06 fort.75.pe50
-rw-r--r-- 1 felipe users         0 Nov 28 20:06 fort.75.pe51
-rw-r--r-- 1 felipe users         0 Nov 28 20:06 fort.75.pe52
-rw-r--r-- 1 felipe users         0 Nov 28 20:06 fort.75.pe53
-rw-r--r-- 1 felipe users         0 Nov 28 20:06 fort.75.pe54
-rw-r--r-- 1 felipe users         0 Nov 28 20:06 fort.75.pe55
-rw-r--r-- 1 felipe users         0 Nov 28 20:06 fort.75.pe56
-rw-r--r-- 1 felipe users         0 Nov 28 20:06 fort.75.pe57
-rw-r--r-- 1 felipe users         0 Nov 28 20:06 fort.75.pe58
-rw-r--r-- 1 felipe users         0 Nov 28 20:06 fort.75.pe59
-rw-r--r-- 1 felipe users         0 Nov 28 20:06 fort.75.pe60
-rw-r--r-- 1 felipe users         0 Nov 28 20:06 fort.75.pe61
-rw-r--r-- 1 felipe users         0 Nov 28 20:06 fort.75.pe62
-rw-r--r-- 1 felipe users         0 Nov 28 20:06 fort.75.pe63
-rw-r--r-- 1 felipe users         0 Nov 28 20:06 fort.77.pe00
-rw-r--r-- 1 felipe users         0 Nov 28 20:06 fort.77.pe01
-rw-r--r-- 1 felipe users         0 Nov 28 20:06 fort.77.pe02
-rw-r--r-- 1 felipe users         0 Nov 28 20:06 fort.77.pe03
-rw-r--r-- 1 felipe users         0 Nov 28 20:06 fort.77.pe04
-rw-r--r-- 1 felipe users         0 Nov 28 20:06 fort.77.pe05
-rw-r--r-- 1 felipe users         0 Nov 28 20:06 fort.77.pe06
-rw-r--r-- 1 felipe users         0 Nov 28 20:06 fort.77.pe07
-rw-r--r-- 1 felipe users         0 Nov 28 20:06 fort.77.pe08
-rw-r--r-- 1 felipe users         0 Nov 28 20:06 fort.77.pe09
-rw-r--r-- 1 felipe users         0 Nov 28 20:06 fort.77.pe10
-rw-r--r-- 1 felipe users         0 Nov 28 20:06 fort.77.pe11
-rw-r--r-- 1 felipe users         0 Nov 28 20:06 fort.77.pe12
-rw-r--r-- 1 felipe users         0 Nov 28 20:06 fort.77.pe13
-rw-r--r-- 1 felipe users         0 Nov 28 20:06 fort.77.pe14
-rw-r--r-- 1 felipe users         0 Nov 28 20:06 fort.77.pe15
-rw-r--r-- 1 felipe users         0 Nov 28 20:06 fort.77.pe16
-rw-r--r-- 1 felipe users         0 Nov 28 20:06 fort.77.pe17
-rw-r--r-- 1 felipe users         0 Nov 28 20:06 fort.77.pe18
-rw-r--r-- 1 felipe users         0 Nov 28 20:06 fort.77.pe19
-rw-r--r-- 1 felipe users         0 Nov 28 20:06 fort.77.pe20
-rw-r--r-- 1 felipe users         0 Nov 28 20:06 fort.77.pe21
-rw-r--r-- 1 felipe users         0 Nov 28 20:06 fort.77.pe22
-rw-r--r-- 1 felipe users         0 Nov 28 20:06 fort.77.pe23
-rw-r--r-- 1 felipe users         0 Nov 28 20:06 fort.77.pe24
-rw-r--r-- 1 felipe users         0 Nov 28 20:06 fort.77.pe25
-rw-r--r-- 1 felipe users         0 Nov 28 20:06 fort.77.pe26
-rw-r--r-- 1 felipe users         0 Nov 28 20:06 fort.77.pe27
-rw-r--r-- 1 felipe users         0 Nov 28 20:06 fort.77.pe28
-rw-r--r-- 1 felipe users         0 Nov 28 20:06 fort.77.pe29
-rw-r--r-- 1 felipe users         0 Nov 28 20:06 fort.77.pe30
-rw-r--r-- 1 felipe users         0 Nov 28 20:06 fort.77.pe31
-rw-r--r-- 1 felipe users         0 Nov 28 20:06 fort.77.pe32
-rw-r--r-- 1 felipe users         0 Nov 28 20:06 fort.77.pe33
-rw-r--r-- 1 felipe users         0 Nov 28 20:06 fort.77.pe34
-rw-r--r-- 1 felipe users         0 Nov 28 20:06 fort.77.pe35
-rw-r--r-- 1 felipe users         0 Nov 28 20:06 fort.77.pe36
-rw-r--r-- 1 felipe users         0 Nov 28 20:06 fort.77.pe37
-rw-r--r-- 1 felipe users         0 Nov 28 20:06 fort.77.pe38
-rw-r--r-- 1 felipe users         0 Nov 28 20:06 fort.77.pe39
-rw-r--r-- 1 felipe users         0 Nov 28 20:06 fort.77.pe40
-rw-r--r-- 1 felipe users         0 Nov 28 20:06 fort.77.pe41
-rw-r--r-- 1 felipe users         0 Nov 28 20:06 fort.77.pe42
-rw-r--r-- 1 felipe users         0 Nov 28 20:06 fort.77.pe43
-rw-r--r-- 1 felipe users         0 Nov 28 20:06 fort.77.pe44
-rw-r--r-- 1 felipe users         0 Nov 28 20:06 fort.77.pe45
-rw-r--r-- 1 felipe users         0 Nov 28 20:06 fort.77.pe46
-rw-r--r-- 1 felipe users         0 Nov 28 20:06 fort.77.pe47
-rw-r--r-- 1 felipe users         0 Nov 28 20:06 fort.77.pe48
-rw-r--r-- 1 felipe users         0 Nov 28 20:06 fort.77.pe49
-rw-r--r-- 1 felipe users         0 Nov 28 20:06 fort.77.pe50
-rw-r--r-- 1 felipe users         0 Nov 28 20:06 fort.77.pe51
-rw-r--r-- 1 felipe users         0 Nov 28 20:06 fort.77.pe52
-rw-r--r-- 1 felipe users         0 Nov 28 20:06 fort.77.pe53
-rw-r--r-- 1 felipe users         0 Nov 28 20:06 fort.77.pe54
-rw-r--r-- 1 felipe users         0 Nov 28 20:06 fort.77.pe55
-rw-r--r-- 1 felipe users         0 Nov 28 20:06 fort.77.pe56
-rw-r--r-- 1 felipe users         0 Nov 28 20:06 fort.77.pe57
-rw-r--r-- 1 felipe users         0 Nov 28 20:06 fort.77.pe58
-rw-r--r-- 1 felipe users         0 Nov 28 20:06 fort.77.pe59
-rw-r--r-- 1 felipe users         0 Nov 28 20:06 fort.77.pe60
-rw-r--r-- 1 felipe users         0 Nov 28 20:06 fort.77.pe61
-rw-r--r-- 1 felipe users         0 Nov 28 20:06 fort.77.pe62
-rw-r--r-- 1 felipe users         0 Nov 28 20:06 fort.77.pe63
-rw-r--r-- 1 felipe users         0 Nov 28 20:06 fort.8.pe00
-rw-r--r-- 1 felipe users         0 Nov 28 20:06 fort.8.pe01
-rw-r--r-- 1 felipe users         0 Nov 28 20:06 fort.8.pe02
-rw-r--r-- 1 felipe users         0 Nov 28 20:06 fort.8.pe03
-rw-r--r-- 1 felipe users         0 Nov 28 20:06 fort.8.pe04
-rw-r--r-- 1 felipe users         0 Nov 28 20:06 fort.8.pe05
-rw-r--r-- 1 felipe users         0 Nov 28 20:06 fort.8.pe06
-rw-r--r-- 1 felipe users         0 Nov 28 20:06 fort.8.pe07
-rw-r--r-- 1 felipe users         0 Nov 28 20:06 fort.8.pe08
-rw-r--r-- 1 felipe users         0 Nov 28 20:06 fort.8.pe09
-rw-r--r-- 1 felipe users         0 Nov 28 20:06 fort.8.pe10
-rw-r--r-- 1 felipe users         0 Nov 28 20:06 fort.8.pe11
-rw-r--r-- 1 felipe users         0 Nov 28 20:06 fort.8.pe12
-rw-r--r-- 1 felipe users         0 Nov 28 20:06 fort.8.pe13
-rw-r--r-- 1 felipe users         0 Nov 28 20:06 fort.8.pe14
-rw-r--r-- 1 felipe users         0 Nov 28 20:06 fort.8.pe15
-rw-r--r-- 1 felipe users         0 Nov 28 20:06 fort.8.pe16
-rw-r--r-- 1 felipe users         0 Nov 28 20:06 fort.8.pe17
-rw-r--r-- 1 felipe users         0 Nov 28 20:06 fort.8.pe18
-rw-r--r-- 1 felipe users         0 Nov 28 20:06 fort.8.pe19
-rw-r--r-- 1 felipe users         0 Nov 28 20:06 fort.8.pe20
-rw-r--r-- 1 felipe users         0 Nov 28 20:06 fort.8.pe21
-rw-r--r-- 1 felipe users         0 Nov 28 20:06 fort.8.pe22
-rw-r--r-- 1 felipe users         0 Nov 28 20:06 fort.8.pe23
-rw-r--r-- 1 felipe users         0 Nov 28 20:06 fort.8.pe24
-rw-r--r-- 1 felipe users         0 Nov 28 20:06 fort.8.pe25
-rw-r--r-- 1 felipe users         0 Nov 28 20:06 fort.8.pe26
-rw-r--r-- 1 felipe users         0 Nov 28 20:06 fort.8.pe27
-rw-r--r-- 1 felipe users         0 Nov 28 20:06 fort.8.pe28
-rw-r--r-- 1 felipe users         0 Nov 28 20:06 fort.8.pe29
-rw-r--r-- 1 felipe users         0 Nov 28 20:06 fort.8.pe30
-rw-r--r-- 1 felipe users         0 Nov 28 20:06 fort.8.pe31
-rw-r--r-- 1 felipe users         0 Nov 28 20:06 fort.8.pe32
-rw-r--r-- 1 felipe users         0 Nov 28 20:06 fort.8.pe33
-rw-r--r-- 1 felipe users         0 Nov 28 20:06 fort.8.pe34
-rw-r--r-- 1 felipe users         0 Nov 28 20:06 fort.8.pe35
-rw-r--r-- 1 felipe users         0 Nov 28 20:06 fort.8.pe36
-rw-r--r-- 1 felipe users         0 Nov 28 20:06 fort.8.pe37
-rw-r--r-- 1 felipe users         0 Nov 28 20:06 fort.8.pe38
-rw-r--r-- 1 felipe users         0 Nov 28 20:06 fort.8.pe39
-rw-r--r-- 1 felipe users         0 Nov 28 20:06 fort.8.pe40
-rw-r--r-- 1 felipe users         0 Nov 28 20:06 fort.8.pe41
-rw-r--r-- 1 felipe users         0 Nov 28 20:06 fort.8.pe42
-rw-r--r-- 1 felipe users         0 Nov 28 20:06 fort.8.pe43
-rw-r--r-- 1 felipe users         0 Nov 28 20:06 fort.8.pe44
-rw-r--r-- 1 felipe users         0 Nov 28 20:06 fort.8.pe45
-rw-r--r-- 1 felipe users         0 Nov 28 20:06 fort.8.pe46
-rw-r--r-- 1 felipe users         0 Nov 28 20:06 fort.8.pe47
-rw-r--r-- 1 felipe users 151519240 Nov 28 20:21 fort.8.pe48
-rw-r--r-- 1 felipe users 151519240 Nov 28 20:21 fort.8.pe49
-rw-r--r-- 1 felipe users 151519240 Nov 28 20:21 fort.8.pe50
-rw-r--r-- 1 felipe users 151519240 Nov 28 20:21 fort.8.pe51
-rw-r--r-- 1 felipe users 151519240 Nov 28 20:21 fort.8.pe52
-rw-r--r-- 1 felipe users 151519240 Nov 28 20:21 fort.8.pe53
-rw-r--r-- 1 felipe users 151519240 Nov 28 20:21 fort.8.pe54
-rw-r--r-- 1 felipe users 151519240 Nov 28 20:21 fort.8.pe55
-rw-r--r-- 1 felipe users 151519240 Nov 28 20:21 fort.8.pe56
-rw-r--r-- 1 felipe users 151519240 Nov 28 20:21 fort.8.pe57
-rw-r--r-- 1 felipe users 151519240 Nov 28 20:21 fort.8.pe58
-rw-r--r-- 1 felipe users 151519240 Nov 28 20:21 fort.8.pe59
-rw-r--r-- 1 felipe users 151519240 Nov 28 20:21 fort.8.pe60
-rw-r--r-- 1 felipe users 151519240 Nov 28 20:21 fort.8.pe61
-rw-r--r-- 1 felipe users 151519240 Nov 28 20:21 fort.8.pe62
-rw-r--r-- 1 felipe users 151519240 Nov 28 20:21 fort.8.pe63
-rw-r--r-- 1 felipe users 142998508 Nov 28 20:06 fort.9
-rw-r--r-- 1 felipe users 376608401 Nov 28 20:06 fort.98
-rw-r--r-- 1 felipe users       691 Nov 28 20:06 INPUT
-rwxr-xr-x 1 felipe users 104622352 Nov 28 20:06 Pproperties
file fort.98 saved as /home/felipe/Wide-Band-Gap/Ga2O3/18_HF/OCTA/GaO_OCTA_18HF_BAND_ERRATUM_DEF.f98
file fort.25 saved as /home/felipe/Wide-Band-Gap/Ga2O3/18_HF/OCTA/GaO_OCTA_18HF_BAND_ERRATUM_DEF.f25
file BAND.DAT saved as /home/felipe/Wide-Band-Gap/Ga2O3/18_HF/OCTA/GaO_OCTA_18HF_BAND_ERRATUM_DEF_dat.BAND
removing temporary directories /home/felipe/tmp/tmp_p170810_felipe from each node
