date Mon Dec 1 09:47:33 AM CET 2025
master hostname valdubon
master system Linux valdubon 6.4.0-150600.23.73-default #1 SMP PREEMPT_DYNAMIC Tue Oct 7 08:43:02 UTC 2025 (46f6a23) x86_64 x86_64 x86_64 GNU/Linux
user felipe
output data in /home/felipe/Wide-Band-Gap/Ga2O3/18_HF/PRISTINE/GaO_PRISTINE_18HF_DOS.outp
mpirun executable in /home/felipe/openmpi-4.1.5/bin
file machines.LINUX in /home/felipe/CRYSTAL23/utils23
list of nodes in /home/felipe/CRYSTAL23/utils23/nodes.par
creating temporary directories /home/felipe/tmp/tmp_p183389_felipe on each node
copying input file on each node
scf guess from /home/felipe/Wide-Band-Gap/Ga2O3/18_HF/PRISTINE/GaO_PRISTINE_18HF.f9
copying Pproperties executable on each node
properties input data in /home/felipe/Wide-Band-Gap/Ga2O3/18_HF/PRISTINE/GaO_PRISTINE_18HF_DOS.d3
NEWK
2 2
1 0
DOSS
4 2000 979 1600 1 12 0
-64 1 2 3 4 5 6 7 8 9 10 11 12 13 14 15 16 17 18 19 20 21 22 23 24 25 26 27 28 29 30 31 32 33 34 35 36 37 38 39 40 41 42 43 44 45 46 47 48 49 50 51 52 53 54 55 56 57 58 59 60 61 62 63 64
-32 65 66 67 68 69 70 71 72 73 74 75 76 77 78 79 80 81 82 83 84 85 86 87 88 89 90 91 92 93 94 95 96
-32 97 98 99 100 101 102 103 104 105 106 107 108 109 110 111 112 113 114 115 116 117 118 119 120 121 122 123 124 125 126 127 128
-32 129 130 131 132 133 134 135 136 137 138 139 140 141 142 143 144 145 146 147 148 149 150 151 152 153 154 155 156 157 158 159 160
END

copying input file on each node
wave function formatted data from /home/felipe/Wide-Band-Gap/Ga2O3/18_HF/PRISTINE/GaO_PRISTINE_18HF.f98
         128 PROCESSORS WORKING

         
 *******************************************************************************
 *                                                                             *
 *                               CRYSTAL23                                     *
 *                      public : 1.0.1 - October 2022                          *
 *                       HTTP://WWW.CRYSTAL.UNITO.IT                           *
 *                                                                             *
 *                              MAIN AUTHORS                                   *
 *                                                                             *
 *  R. DOVESI(1,11), V.R. SAUNDERS(2), C. ROETTI(1,11), R. ORLANDO(1,11),      *
 *  C.M. ZICOVICH-WILSON(1,3), F. PASCALE(4), B. CIVALLERI(1,11),              *
 *  K. DOLL(5), N.M. HARRISON(6), I.J. BUSH(7), Ph. D'ARCO(8),                 *
 *  M. LLUNELL(9), M. CAUSA'(10), Y. NOEL(8), L. MASCHIO(1,11), A. ERBA(1,11)  *
 *  M. RE'RAT(14), S. CASASSA(1,11), B.G. SEARLE(2), J.K. DESMARAIS(1)         *
 *                                                                             *
 *        CONTRIBUTIONS TO THE CODE HAVE ALSO BEEN GIVEN BY                    *
 *                                                                             *
 *  M. FERRABONE(1,11), M. DE LA PIERRE(1,11), M. FERRERO(1,11),               *
 *  J. BAIMA(1,11), E. ALBANESE(1,11), M.F. PEINTINGER(12), R. BAST(13),       *
 *  B. KIRTMAN(15), V. LACIVITA(1,11), R. DEMICHELIS(1,16)                     *
 *  G. BRANDEBURG(17), S. SALUSTRO(1,11), G. SANSONE(1,11)                     *
 *  M.T. RUGGIERO(18), L.E. DAGA(1), L. DONA'(1), A. COSSARD(1)                *
 *                                                                             *
 * (1) THEORETICAL CHEMISTRY GROUP - UNIVERSITA' DI TORINO - TORINO (ITALY)    *
 * (2) SCIENTIFIC COMPUTING DEPARTMENT - STFC DARESBURY (UK)                   *
 * (3) UNIVERSIDAD AUTONOMA DEL ESTADO DE MORELOS - CUERNAVACA (MEXICO)        *
 * (4) UNIVERSITE' DE LORRAINE - NANCY (FRANCE)                                *
 * (5) UNIVERSITAET STUTTGART- STUTTGART (GERMANY)                             *
 * (6) IMPERIAL COLLEGE - LONDON (UK)                                          *
 * (7) SCIENTIFIC COMPUTING DEPARTMENT - STFC RAL (UK)                         *
 * (8) UPMC - SORBONNE UNIVERSITES - PARIS (FRANCE)                            *
 * (9) UNIVERSIDAD DE BARCELONA - BARCELONA (SPAIN)                            *
 *(10) UNIVERSITA' DI NAPOLI "FEDERICO II" - NAPOLI (ITALY)                    *
 *(11) NIS - NANOSTRUCTURED INTERFACES AND SURFACES - TORINO (ITALY)           *
 *(12) MPI FUER CHEMISCHE ENERGIEKONVERSION - MUELHEIM AN DER RUHR (GERMANY)   *
 *(13) UNIVERSITY OF TROMSO - TROMSO (NORWAY)                                  *
 *(14) UNIVERSITE' DE PAU ET DES PAYS DE L'ADOUR - PAU (FRANCE)                *
 *(15) UNIVERSITY OF CALIFORNIA SANTA BARBARA - SANTA BARBARA (USA)            *
 *(16) CURTIN UNIVERSITY - PERTH (AUSTRALIA)                                   *
 *(17) UNIVERSITY COLLEGE LONDON - LONDON (UK)                                 *
 *(18) UNIVERSITY OF VERMONT - BURLINGTON (USA)                                *
 *                                                                             *
 *******************************************************************************
 EEEEEEEEEE STARTING  DATE 01 12 2025 TIME 09:47:38.4
 INFORMATION **** SET_MPP **** PCRYSTAL CALCULATION

 *******************************************************************************
 β-Ga₂O₃  2×2×2 super-cell – HSE06 - spin polarised                     
 CRYSTAL - PROPERTIES - TYPE OF CALCULATION :  RESTRICTED CLOSED SHELL
 *******************************************************************************
 KOHN-SHAM HAMILTONIAN

 (EXCHANGE)[CORRELATION] FUNCTIONAL:(HSE06 SR/GGA)[PERDEW-BURKE-ERNZERHOF]

 RANGE-SEPARATED HYBRID FUNCTIONAL 
 OMEGA (SHORT-RANGE)[LONG-RANGE]:(    0.1100)[    0.0000]

 HYBRID EXCHANGE - PERCENTAGE OF FOCK EXCHANGE    18.0000

 DIRECT LATTICE VECTOR COMPONENTS (ANGSTROM)
        24.57121    0.00000    0.00000
         0.00000    6.12337    0.00000
        -2.79547    0.00000   11.33580

 LATTICE PARAMETERS  (ANGSTROM AND DEGREES) - PRIMITIVE CELL
       A          B          C         ALPHA      BETA     GAMMA        VOLUME
   24.57121    6.12337   11.67540     90.0000  103.8531   90.0000    1705.56932
 *******************************************************************************
 N. OF ATOMS PER CELL       160 COULOMB OVERLAP TOL          (T1) 10**   -7
 NUMBER OF SHELLS          1728 COULOMB PENETRATION TOL      (T2) 10**   -7
 NUMBER OF AO              4352 EXCHANGE OVERLAP TOL         (T3) 10**   -7
 N. OF ELECTRONS PER CELL  2752 EXCHANGE PSEUDO OVP (F(G))   (T4) 10**   -7
 CORE ELECTRONS PER CELL   1984 EXCHANGE PSEUDO OVP (P(G))   (T5) 10**  -14
 N. OF SYMMETRY OPERATORS     1 POLE ORDER IN MONO ZONE                   4
 *******************************************************************************
   ATOM N.AT.  SHELL    X(A)      Y(A)      Z(A)      EXAD       N.ELECT.
 *******************************************************************************
    1   31 GA   15    -4.740    -1.531    -1.160   2.831E-01      29.270
    2   31 GA   15    -3.342    -1.531    -6.828   2.831E-01      29.270
    3   31 GA   15    -4.740     1.531    -1.160   2.831E-01      29.270
    4   31 GA   15    -3.342     1.531    -6.828   2.831E-01      29.270
    5   31 GA   15     7.545    -1.531    -1.160   2.831E-01      29.270
    6   31 GA   15     6.148    -1.531     4.508   2.831E-01      29.270
    7   31 GA   15     7.545     1.531    -1.160   2.831E-01      29.270
    8   31 GA   15     6.148     1.531     4.508   2.831E-01      29.270
    9   31 GA   15     1.403    -0.000    -1.160   2.831E-01      29.270
   10   31 GA   15     0.005     0.000     4.508   2.831E-01      29.270
   11   31 GA   15     1.403     3.062    -1.160   2.831E-01      29.270
   12   31 GA   15     0.005     3.062     4.508   2.831E-01      29.270
   13   31 GA   15   -10.883    -0.000    -1.160   2.831E-01      29.270
   14   31 GA   15    -9.485    -0.000    -6.828   2.831E-01      29.270
   15   31 GA   15   -10.883     3.062    -1.160   2.831E-01      29.270
   16   31 GA   15    -9.485     3.062    -6.828   2.831E-01      29.270
   17   31 GA   15     4.740     1.531     1.160   2.831E-01      29.270
   18   31 GA   15     3.342     1.531     6.828   2.831E-01      29.270
   19   31 GA   15     4.740    -1.531     1.160   2.831E-01      29.270
   20   31 GA   15     3.342    -1.531     6.828   2.831E-01      29.270
   21   31 GA   15    -7.545     1.531     1.160   2.831E-01      29.270
   22   31 GA   15    -6.148     1.531    -4.508   2.831E-01      29.270
   23   31 GA   15    -7.545    -1.531     1.160   2.831E-01      29.270
   24   31 GA   15    -6.148    -1.531    -4.508   2.831E-01      29.270
   25   31 GA   15    -1.403     0.000     1.160   2.831E-01      29.270
   26   31 GA   15    -0.005    -0.000    -4.508   2.831E-01      29.270
   27   31 GA   15    -1.403     3.062     1.160   2.831E-01      29.270
   28   31 GA   15    -0.005     3.062    -4.508   2.831E-01      29.270
   29   31 GA   15    10.883     0.000     1.160   2.831E-01      29.270
   30   31 GA   15     9.485     0.000     6.828   2.831E-01      29.270
   31   31 GA   15    10.883     3.062     1.160   2.831E-01      29.270
   32   31 GA   15     9.485     3.062     6.828   2.831E-01      29.270
   33   31 GA   15    -4.636     0.000     1.784   2.831E-01      29.303
   34   31 GA   15    -3.238    -0.000    -3.883   2.831E-01      29.303
   35   31 GA   15    -4.635     3.062     1.784   2.831E-01      29.303
   36   31 GA   15    -3.238     3.062    -3.884   2.831E-01      29.303
   37   31 GA   15     7.650     0.000     1.784   2.831E-01      29.303
   38   31 GA   15     6.252     0.000     7.452   2.831E-01      29.303
   39   31 GA   15     7.650     3.062     1.784   2.831E-01      29.303
   40   31 GA   15     6.252     3.062     7.452   2.831E-01      29.303
   41   31 GA   15     1.507     1.531     1.784   2.831E-01      29.303
   42   31 GA   15     2.905     1.531    -3.884   2.831E-01      29.303
   43   31 GA   15     1.507    -1.531     1.784   2.831E-01      29.303
   44   31 GA   15     2.905    -1.531    -3.884   2.831E-01      29.303
   45   31 GA   15   -10.778     1.531     1.784   2.831E-01      29.303
   46   31 GA   15    -9.380     1.531    -3.884   2.831E-01      29.303
   47   31 GA   15   -10.778    -1.531     1.784   2.831E-01      29.303
   48   31 GA   15    -9.380    -1.531    -3.884   2.831E-01      29.303
   49   31 GA   15     4.636    -0.000    -1.784   2.831E-01      29.303
   50   31 GA   15     3.238    -0.000     3.883   2.831E-01      29.303
   51   31 GA   15     4.635     3.062    -1.784   2.831E-01      29.303
   52   31 GA   15     3.238     3.062     3.884   2.831E-01      29.303
   53   31 GA   15    -7.650    -0.000    -1.784   2.831E-01      29.303
   54   31 GA   15    -6.252    -0.000    -7.452   2.831E-01      29.303
   55   31 GA   15    -7.650     3.062    -1.784   2.831E-01      29.303
   56   31 GA   15    -6.252     3.062    -7.452   2.831E-01      29.303
   57   31 GA   15    -1.507     1.531    -1.784   2.831E-01      29.303
   58   31 GA   15    -2.905     1.531     3.884   2.831E-01      29.303
   59   31 GA   15    -1.507    -1.531    -1.784   2.831E-01      29.303
   60   31 GA   15    -2.905    -1.531     3.884   2.831E-01      29.303
   61   31 GA   15    10.778     1.531    -1.784   2.831E-01      29.303
   62   31 GA   15     9.380     1.531     3.884   2.831E-01      29.303
   63   31 GA   15    10.778    -1.531    -1.784   2.831E-01      29.303
   64   31 GA   15     9.380    -1.531     3.884   2.831E-01      29.303
   65    8 O     8    -5.730    -0.000    -1.453   4.535E-01       9.089
   66    8 O     8    -7.128    -0.000     4.215   4.535E-01       9.089
   67    8 O     8    -5.730     3.062    -1.452   4.535E-01       9.089
   68    8 O     8    -7.128     3.062     4.215   4.535E-01       9.089
   69    8 O     8     6.555     0.000    -1.453   4.535E-01       9.089
   70    8 O     8     5.158     0.000     4.215   4.535E-01       9.089
   71    8 O     8     6.555     3.062    -1.453   4.535E-01       9.089
   72    8 O     8     5.158     3.062     4.215   4.535E-01       9.089
   73    8 O     8     0.413    -1.531    -1.453   4.535E-01       9.089
   74    8 O     8    -0.985    -1.531     4.215   4.535E-01       9.089
   75    8 O     8     0.413     1.531    -1.453   4.535E-01       9.089
   76    8 O     8    -0.985     1.531     4.215   4.535E-01       9.089
   77    8 O     8   -11.873    -1.531    -1.453   4.535E-01       9.089
   78    8 O     8    11.300    -1.531     4.215   4.535E-01       9.089
   79    8 O     8   -11.873     1.531    -1.453   4.535E-01       9.089
   80    8 O     8    11.300     1.531     4.215   4.535E-01       9.089
   81    8 O     8     5.730     0.000     1.453   4.535E-01       9.089
   82    8 O     8     7.128     0.000    -4.215   4.535E-01       9.089
   83    8 O     8     5.730     3.062     1.452   4.535E-01       9.089
   84    8 O     8     7.128     3.062    -4.215   4.535E-01       9.089
   85    8 O     8    -6.555    -0.000     1.453   4.535E-01       9.089
   86    8 O     8    -5.158    -0.000    -4.215   4.535E-01       9.089
   87    8 O     8    -6.555     3.062     1.453   4.535E-01       9.089
   88    8 O     8    -5.158     3.062    -4.215   4.535E-01       9.089
   89    8 O     8    -0.413     1.531     1.453   4.535E-01       9.089
   90    8 O     8     0.985     1.531    -4.215   4.535E-01       9.089
   91    8 O     8    -0.413    -1.531     1.453   4.535E-01       9.089
   92    8 O     8     0.985    -1.531    -4.215   4.535E-01       9.089
   93    8 O     8    11.873     1.531     1.453   4.535E-01       9.089
   94    8 O     8   -11.300     1.531    -4.215   4.535E-01       9.089
   95    8 O     8    11.873    -1.531     1.453   4.535E-01       9.089
   96    8 O     8   -11.300    -1.531    -4.215   4.535E-01       9.089
   97    8 O     8    -4.278     1.531     0.624   4.535E-01       9.110
   98    8 O     8    -2.880     1.531    -5.044   4.535E-01       9.110
   99    8 O     8    -4.278    -1.531     0.624   4.535E-01       9.110
  100    8 O     8    -2.880    -1.531    -5.044   4.535E-01       9.110
  101    8 O     8     8.008     1.531     0.624   4.535E-01       9.110
  102    8 O     8     6.610     1.531     6.292   4.535E-01       9.110
  103    8 O     8     8.008    -1.531     0.624   4.535E-01       9.110
  104    8 O     8     6.610    -1.531     6.292   4.535E-01       9.110
  105    8 O     8     1.865     0.000     0.624   4.535E-01       9.110
  106    8 O     8     3.263    -0.000    -5.044   4.535E-01       9.110
  107    8 O     8     1.865     3.062     0.624   4.535E-01       9.110
  108    8 O     8     3.263     3.062    -5.044   4.535E-01       9.110
  109    8 O     8   -10.420    -0.000     0.624   4.535E-01       9.110
  110    8 O     8    -9.023    -0.000    -5.044   4.535E-01       9.110
  111    8 O     8   -10.420     3.062     0.624   4.535E-01       9.110
  112    8 O     8    -9.023     3.062    -5.044   4.535E-01       9.110
  113    8 O     8     4.278     1.531    -0.624   4.535E-01       9.110
  114    8 O     8     2.880     1.531     5.044   4.535E-01       9.110
  115    8 O     8     4.278    -1.531    -0.624   4.535E-01       9.110
  116    8 O     8     2.880    -1.531     5.044   4.535E-01       9.110
  117    8 O     8    -8.008     1.531    -0.624   4.535E-01       9.110
  118    8 O     8    -6.610     1.531    -6.292   4.535E-01       9.110
  119    8 O     8    -8.008    -1.531    -0.624   4.535E-01       9.110
  120    8 O     8    -6.610    -1.531    -6.292   4.535E-01       9.110
  121    8 O     8    -1.865    -0.000    -0.624   4.535E-01       9.110
  122    8 O     8    -3.263     0.000     5.044   4.535E-01       9.110
  123    8 O     8    -1.865     3.062    -0.624   4.535E-01       9.110
  124    8 O     8    -3.263     3.062     5.044   4.535E-01       9.110
  125    8 O     8    10.420     0.000    -0.624   4.535E-01       9.110
  126    8 O     8     9.023     0.000     5.044   4.535E-01       9.110
  127    8 O     8    10.420     3.062    -0.624   4.535E-01       9.110
  128    8 O     8     9.023     3.062     5.044   4.535E-01       9.110
  129    8 O     8    -3.401     1.531    -2.478   4.535E-01       9.228
  130    8 O     8    -4.799     1.531     3.189   4.535E-01       9.228
  131    8 O     8    -3.401    -1.531    -2.478   4.535E-01       9.228
  132    8 O     8    -4.799    -1.531     3.189   4.535E-01       9.228
  133    8 O     8     8.885     1.531    -2.479   4.535E-01       9.228
  134    8 O     8     7.487     1.531     3.189   4.535E-01       9.228
  135    8 O     8     8.885    -1.531    -2.479   4.535E-01       9.228
  136    8 O     8     7.487    -1.531     3.189   4.535E-01       9.228
  137    8 O     8     2.742    -0.000    -2.479   4.535E-01       9.228
  138    8 O     8     1.344     0.000     3.189   4.535E-01       9.228
  139    8 O     8     2.742     3.062    -2.479   4.535E-01       9.228
  140    8 O     8     1.344     3.062     3.189   4.535E-01       9.228
  141    8 O     8    -9.544    -0.000    -2.479   4.535E-01       9.228
  142    8 O     8   -10.942    -0.000     3.189   4.535E-01       9.228
  143    8 O     8    -9.544     3.062    -2.479   4.535E-01       9.228
  144    8 O     8   -10.942     3.062     3.189   4.535E-01       9.228
  145    8 O     8     3.401     1.531     2.478   4.535E-01       9.228
  146    8 O     8     4.799     1.531    -3.189   4.535E-01       9.228
  147    8 O     8     3.401    -1.531     2.478   4.535E-01       9.228
  148    8 O     8     4.799    -1.531    -3.189   4.535E-01       9.228
  149    8 O     8    -8.885     1.531     2.479   4.535E-01       9.228
  150    8 O     8    -7.487     1.531    -3.189   4.535E-01       9.228
  151    8 O     8    -8.885    -1.531     2.479   4.535E-01       9.228
  152    8 O     8    -7.487    -1.531    -3.189   4.535E-01       9.228
  153    8 O     8    -2.742     0.000     2.479   4.535E-01       9.228
  154    8 O     8    -1.344    -0.000    -3.189   4.535E-01       9.228
  155    8 O     8    -2.742     3.062     2.479   4.535E-01       9.228
  156    8 O     8    -1.344     3.062    -3.189   4.535E-01       9.228
  157    8 O     8     9.544     0.000     2.479   4.535E-01       9.228
  158    8 O     8    10.942     0.000    -3.189   4.535E-01       9.228
  159    8 O     8     9.544     3.062     2.479   4.535E-01       9.228
  160    8 O     8    10.942     3.062    -3.189   4.535E-01       9.228
 *******************************************************************************
 DE(K)                   0.000E+00  ENERGY LEVEL SHIFTING        0.00000
 TOTAL ENERGY -1.3040031449707E+05  CONVERGENCE ON ENER       -1.129E-07
 KIN. ENERGY   1.3022416492483E+05  VIR. COEFF.           1.01751665E+00
 N. OF SCF CYCLES               15  FERMI ENERGY              -0.205E+00
 WEIGHT OF F(I) IN F(I+1)      30
 SHRINK. FACT.(MONKH.)     2  2  2  SHRINKING FACTOR(GILAT NET)        2
 NUMBER OF K POINTS IN THE IBZ   8  CELL VOLUME (A.U.)      11509.752473
 *******************************************************************************

 GCALCO - MAX INDICES DIRECT LATTICE VECTOR     7    29    15
 NO.OF VECTORS CREATED 6999 STARS 1818 RMAX   268.33424 BOHR
 TTTTTTTTTTTTTTTTTTTTTTTTTTTTTT gordsh1     TELAPSE        2.96 TCPU        2.23

 MATRIX SIZE: P(G)10888872, F(G) 1872768, P(G) IRR 5458132, F(G) IRR 1879072
 MAX G-VECTOR INDEX FOR 1- AND 2-ELECTRON INTEGRALS  73


 CAPPA:IS1  2;IS2  2;IS3  2; K PTS MONK NET   8; SYMMOPS:K SPACE   2;G SPACE   1


 CAPPA:IS1  2;IS2  2;IS3  2; K PTS MONK NET   8; SYMMOPS:K SPACE   2;G SPACE   1

 *******************************************************************************
 RESTART WITH NEW K POINTS NET
 *******************************************************************************
 POINTS IN THE IBZ                   8 POINTS(GILAT NET)                 8
 SHRINK FACTORS(MONK.)         2  2  2 SHRINK FACTOR(GILAT)              2
 *******************************************************************************
 *** K POINTS COORDINATES (OBLIQUE COORDINATES IN UNITS OF IS =  2)
   1-R(  0  0  0)   2-R(  1  0  0)   3-R(  0  1  0)   4-R(  1  1  0)
   5-R(  0  0  1)   6-R(  1  0  1)   7-R(  0  1  1)   8-R(  1  1  1)

 FERMI ENERGY AND DENSITY MATRIX CALCULATION ON COMPUTED EIGENVECTORS
 DENSITY MATRIX AT SCF CYCLE ( 15+1)

 INSULATING STATE
 TOP OF VALENCE BANDS -    BAND   1376; K    1; EIG -2.0494251E-01 AU
 BOTTOM OF VIRTUAL BANDS - BAND   1377; K    1; EIG -6.1018469E-02 AU
 DIRECT ENERGY BAND GAP:   3.9164 eV

 CORE DENSITY MATRIX CALCULATION
 TTTTTTTTTTTTTTTTTTTTTTTTTTTTTT NEWK        TELAPSE      620.09 TCPU      619.12
 ###############################################################################

 TOTAL AND PROJECTED DENSITY OF STATES - FOURIER LEGENDRE METHOD
 FROM BAND  979 TO BAND 1600 ENERGY RANGE -0.74016E+00  0.35187E+00

 ###############################################################################

 NUMBER OF LEGENDRE POLYNOMIALS              12
 NUMBER OF SYMMETRIZED PWS FOR EXPANSION      8
 NUMBER OF K POINTS OF SECONDARY NET          8
 NUMBER OF PROJECTIONS                        4
 NUMBER OF ENERGY POINTS                   1998

 *** PROJECTION   1 ATOMIC ORBITALS     1   2   3   4   5   6   7   8   9  10
                                       11  12  13  14  15  16  17  18  19  20
                                       21  22  23  24  25  26  27  28  29  30
                                       31  32  33  34  35  36  37  38  39  40
                                       41  42  43  44  45  46  47  48  49  50
                                       51  52  53  54  55  56  57  58  59  60
                                       61  62  63  64  65  66  67  68  69  70
                                       71  72  73  74  75  76  77  78  79  80
                                       81  82  83  84  85  86  87  88  89  90
                                       91  92  93  94  95  96  97  98  99 100
                                      101 102 103 104 105 106 107 108 109 110
                                      111 112 113 114 115 116 117 118 119 120
                                      121 122 123 124 125 126 127 128 129 130
                                      131 132 133 134 135 136 137 138 139 140
                                      141 142 143 144 145 146 147 148 149 150
                                      151 152 153 154 155 156 157 158 159 160
                                      161 162 163 164 165 166 167 168 169 170
                                      171 172 173 174 175 176 177 178 179 180
                                      181 182 183 184 185 186 187 188 189 190
                                      191 192 193 194 195 196 197 198 199 200
                                      201 202 203 204 205 206 207 208 209 210
                                      211 212 213 214 215 216 217 218 219 220
                                      221 222 223 224 225 226 227 228 229 230
                                      231 232 233 234 235 236 237 238 239 240
                                      241 242 243 244 245 246 247 248 249 250
                                      251 252 253 254 255 256 257 258 259 260
                                      261 262 263 264 265 266 267 268 269 270
                                      271 272 273 274 275 276 277 278 279 280
                                      281 282 283 284 285 286 287 288 289 290
                                      291 292 293 294 295 296 297 298 299 300
                                      301 302 303 304 305 306 307 308 309 310
                                      311 312 313 314 315 316 317 318 319 320
                                      321 322 323 324 325 326 327 328 329 330
                                      331 332 333 334 335 336 337 338 339 340
                                      341 342 343 344 345 346 347 348 349 350
                                      351 352 353 354 355 356 357 358 359 360
                                      361 362 363 364 365 366 367 368 369 370
                                      371 372 373 374 375 376 377 378 379 380
                                      381 382 383 384 385 386 387 388 389 390
                                      391 392 393 394 395 396 397 398 399 400
                                      401 402 403 404 405 406 407 408 409 410
                                      411 412 413 414 415 416 417 418 419 420
                                      421 422 423 424 425 426 427 428 429 430
                                      431 432 433 434 435 436 437 438 439 440
                                      441 442 443 444 445 446 447 448 449 450
                                      451 452 453 454 455 456 457 458 459 460
                                      461 462 463 464 465 466 467 468 469 470
                                      471 472 473 474 475 476 477 478 479 480
                                      481 482 483 484 485 486 487 488 489 490
                                      491 492 493 494 495 496 497 498 499 500
                                      501 502 503 504 505 506 507 508 509 510
                                      511 512 513 514 515 516 517 518 519 520
                                      521 522 523 524 525 526 527 528 529 530
                                      531 532 533 534 535 536 537 538 539 540
                                      541 542 543 544 545 546 547 548 549 550
                                      551 552 553 554 555 556 557 558 559 560
                                      561 562 563 564 565 566 567 568 569 570
                                      571 572 573 574 575 576 577 578 579 580
                                      581 582 583 584 585 586 587 588 589 590
                                      591 592 593 594 595 596 597 598 599 600
                                      601 602 603 604 605 606 607 608 609 610
                                      611 612 613 614 615 616 617 618 619 620
                                      621 622 623 624 625 626 627 628 629 630
                                      631 632 633 634 635 636 637 638 639 640
                                      641 642 643 644 645 646 647 648 649 650
                                      651 652 653 654 655 656 657 658 659 660
                                      661 662 663 664 665 666 667 668 669 670
                                      671 672 673 674 675 676 677 678 679 680
                                      681 682 683 684 685 686 687 688 689 690
                                      691 692 693 694 695 696 697 698 699 700
                                      701 702 703 704 705 706 707 708 709 710
                                      711 712 713 714 715 716 717 718 719 720
                                      721 722 723 724 725 726 727 728 729 730
                                      731 732 733 734 735 736 737 738 739 740
                                      741 742 743 744 745 746 747 748 749 750
                                      751 752 753 754 755 756 757 758 759 760
                                      761 762 763 764 765 766 767 768 769 770
                                      771 772 773 774 775 776 777 778 779 780
                                      781 782 783 784 785 786 787 788 789 790
                                      791 792 793 794 795 796 797 798 799 800
                                      801 802 803 804 805 806 807 808 809 810
                                      811 812 813 814 815 816 817 818 819 820
                                      821 822 823 824 825 826 827 828 829 830
                                      831 832 833 834 835 836 837 838 839 840
                                      841 842 843 844 845 846 847 848 849 850
                                      851 852 853 854 855 856 857 858 859 860
                                      861 862 863 864 865 866 867 868 869 870
                                      871 872 873 874 875 876 877 878 879 880
                                      881 882 883 884 885 886 887 888 889 890
                                      891 892 893 894 895 896 897 898 899 900
                                      901 902 903 904 905 906 907 908 909 910
                                      911 912 913 914 915 916 917 918 919 920
                                      921 922 923 924 925 926 927 928 929 930
                                      931 932 933 934 935 936 937 938 939 940
                                      941 942 943 944 945 946 947 948 949 950
                                      951 952 953 954 955 956 957 958 959 960
                                      961 962 963 964 965 966 967 968 969 970
                                      971 972 973 974 975 976 977 978 979 980
                                      981 982 983 984 985 986 987 988 989 990
                                      991 992 993 994 995 996 997 998 9991000
                                     1001100210031004100510061007100810091010
                                     1011101210131014101510161017101810191020
                                     1021102210231024102510261027102810291030
                                     1031103210331034103510361037103810391040
                                     1041104210431044104510461047104810491050
                                     1051105210531054105510561057105810591060
                                     1061106210631064106510661067106810691070
                                     1071107210731074107510761077107810791080
                                     1081108210831084108510861087108810891090
                                     1091109210931094109510961097109810991100
                                     1101110211031104110511061107110811091110
                                     1111111211131114111511161117111811191120
                                     1121112211231124112511261127112811291130
                                     1131113211331134113511361137113811391140
                                     1141114211431144114511461147114811491150
                                     1151115211531154115511561157115811591160
                                     1161116211631164116511661167116811691170
                                     1171117211731174117511761177117811791180
                                     1181118211831184118511861187118811891190
                                     1191119211931194119511961197119811991200
                                     1201120212031204120512061207120812091210
                                     1211121212131214121512161217121812191220
                                     1221122212231224122512261227122812291230
                                     1231123212331234123512361237123812391240
                                     1241124212431244124512461247124812491250
                                     1251125212531254125512561257125812591260
                                     1261126212631264126512661267126812691270
                                     1271127212731274127512761277127812791280
                                     1281128212831284128512861287128812891290
                                     1291129212931294129512961297129812991300
                                     1301130213031304130513061307130813091310
                                     1311131213131314131513161317131813191320
                                     1321132213231324132513261327132813291330
                                     1331133213331334133513361337133813391340
                                     1341134213431344134513461347134813491350
                                     1351135213531354135513561357135813591360
                                     1361136213631364136513661367136813691370
                                     1371137213731374137513761377137813791380
                                     1381138213831384138513861387138813891390
                                     1391139213931394139513961397139813991400
                                     1401140214031404140514061407140814091410
                                     1411141214131414141514161417141814191420
                                     1421142214231424142514261427142814291430
                                     1431143214331434143514361437143814391440
                                     1441144214431444144514461447144814491450
                                     1451145214531454145514561457145814591460
                                     1461146214631464146514661467146814691470
                                     1471147214731474147514761477147814791480
                                     1481148214831484148514861487148814891490
                                     1491149214931494149514961497149814991500
                                     1501150215031504150515061507150815091510
                                     1511151215131514151515161517151815191520
                                     1521152215231524152515261527152815291530
                                     1531153215331534153515361537153815391540
                                     1541154215431544154515461547154815491550
                                     1551155215531554155515561557155815591560
                                     1561156215631564156515661567156815691570
                                     1571157215731574157515761577157815791580
                                     1581158215831584158515861587158815891590
                                     1591159215931594159515961597159815991600
                                     1601160216031604160516061607160816091610
                                     1611161216131614161516161617161816191620
                                     1621162216231624162516261627162816291630
                                     1631163216331634163516361637163816391640
                                     1641164216431644164516461647164816491650
                                     1651165216531654165516561657165816591660
                                     1661166216631664166516661667166816691670
                                     1671167216731674167516761677167816791680
                                     1681168216831684168516861687168816891690
                                     1691169216931694169516961697169816991700
                                     1701170217031704170517061707170817091710
                                     1711171217131714171517161717171817191720
                                     1721172217231724172517261727172817291730
                                     1731173217331734173517361737173817391740
                                     1741174217431744174517461747174817491750
                                     1751175217531754175517561757175817591760
                                     1761176217631764176517661767176817691770
                                     1771177217731774177517761777177817791780
                                     1781178217831784178517861787178817891790
                                     1791179217931794179517961797179817991800
                                     1801180218031804180518061807180818091810
                                     1811181218131814181518161817181818191820
                                     1821182218231824182518261827182818291830
                                     1831183218331834183518361837183818391840
                                     1841184218431844184518461847184818491850
                                     1851185218531854185518561857185818591860
                                     1861186218631864186518661867186818691870
                                     1871187218731874187518761877187818791880
                                     1881188218831884188518861887188818891890
                                     1891189218931894189518961897189818991900
                                     1901190219031904190519061907190819091910
                                     1911191219131914191519161917191819191920
                                     1921192219231924192519261927192819291930
                                     1931193219331934193519361937193819391940
                                     1941194219431944194519461947194819491950
                                     1951195219531954195519561957195819591960
                                     1961196219631964196519661967196819691970
                                     1971197219731974197519761977197819791980
                                     1981198219831984198519861987198819891990
                                     1991199219931994199519961997199819992000
                                     2001200220032004200520062007200820092010
                                     2011201220132014201520162017201820192020
                                     2021202220232024202520262027202820292030
                                     2031203220332034203520362037203820392040
                                     2041204220432044204520462047204820492050
                                     2051205220532054205520562057205820592060
                                     2061206220632064206520662067206820692070
                                     2071207220732074207520762077207820792080
                                     2081208220832084208520862087208820892090
                                     2091209220932094209520962097209820992100
                                     2101210221032104210521062107210821092110
                                     2111211221132114211521162117211821192120
                                     2121212221232124212521262127212821292130
                                     2131213221332134213521362137213821392140
                                     2141214221432144214521462147214821492150
                                     2151215221532154215521562157215821592160
                                     2161216221632164216521662167216821692170
                                     2171217221732174217521762177217821792180
                                     2181218221832184218521862187218821892190
                                     2191219221932194219521962197219821992200
                                     2201220222032204220522062207220822092210
                                     2211221222132214221522162217221822192220
                                     2221222222232224222522262227222822292230
                                     2231223222332234223522362237223822392240
                                     2241224222432244224522462247224822492250
                                     2251225222532254225522562257225822592260
                                     2261226222632264226522662267226822692270
                                     2271227222732274227522762277227822792280
                                     2281228222832284228522862287228822892290
                                     2291229222932294229522962297229822992300
                                     2301230223032304230523062307230823092310
                                     2311231223132314231523162317231823192320
                                     2321232223232324232523262327232823292330
                                     2331233223332334233523362337233823392340
                                     2341234223432344234523462347234823492350
                                     2351235223532354235523562357235823592360
                                     2361236223632364236523662367236823692370
                                     2371237223732374237523762377237823792380
                                     2381238223832384238523862387238823892390
                                     2391239223932394239523962397239823992400
                                     2401240224032404240524062407240824092410
                                     2411241224132414241524162417241824192420
                                     2421242224232424242524262427242824292430
                                     2431243224332434243524362437243824392440
                                     2441244224432444244524462447244824492450
                                     2451245224532454245524562457245824592460
                                     2461246224632464246524662467246824692470
                                     2471247224732474247524762477247824792480
                                     2481248224832484248524862487248824892490
                                     2491249224932494249524962497249824992500
                                     2501250225032504250525062507250825092510
                                     2511251225132514251525162517251825192520
                                     2521252225232524252525262527252825292530
                                     2531253225332534253525362537253825392540
                                     2541254225432544254525462547254825492550
                                     2551255225532554255525562557255825592560
                                     2561256225632564256525662567256825692570
                                     2571257225732574257525762577257825792580
                                     2581258225832584258525862587258825892590
                                     2591259225932594259525962597259825992600
                                     2601260226032604260526062607260826092610
                                     2611261226132614261526162617261826192620
                                     2621262226232624

 *** PROJECTION   2 ATOMIC ORBITALS  2625262626272628262926302631263226332634
                                     2635263626372638263926402641264226432644
                                     2645264626472648264926502651265226532654
                                     2655265626572658265926602661266226632664
                                     2665266626672668266926702671267226732674
                                     2675267626772678267926802681268226832684
                                     2685268626872688268926902691269226932694
                                     2695269626972698269927002701270227032704
                                     2705270627072708270927102711271227132714
                                     2715271627172718271927202721272227232724
                                     2725272627272728272927302731273227332734
                                     2735273627372738273927402741274227432744
                                     2745274627472748274927502751275227532754
                                     2755275627572758275927602761276227632764
                                     2765276627672768276927702771277227732774
                                     2775277627772778277927802781278227832784
                                     2785278627872788278927902791279227932794
                                     2795279627972798279928002801280228032804
                                     2805280628072808280928102811281228132814
                                     2815281628172818281928202821282228232824
                                     2825282628272828282928302831283228332834
                                     2835283628372838283928402841284228432844
                                     2845284628472848284928502851285228532854
                                     2855285628572858285928602861286228632864
                                     2865286628672868286928702871287228732874
                                     2875287628772878287928802881288228832884
                                     2885288628872888288928902891289228932894
                                     2895289628972898289929002901290229032904
                                     2905290629072908290929102911291229132914
                                     2915291629172918291929202921292229232924
                                     2925292629272928292929302931293229332934
                                     2935293629372938293929402941294229432944
                                     2945294629472948294929502951295229532954
                                     2955295629572958295929602961296229632964
                                     2965296629672968296929702971297229732974
                                     2975297629772978297929802981298229832984
                                     2985298629872988298929902991299229932994
                                     2995299629972998299930003001300230033004
                                     3005300630073008300930103011301230133014
                                     3015301630173018301930203021302230233024
                                     3025302630273028302930303031303230333034
                                     3035303630373038303930403041304230433044
                                     3045304630473048304930503051305230533054
                                     3055305630573058305930603061306230633064
                                     3065306630673068306930703071307230733074
                                     3075307630773078307930803081308230833084
                                     3085308630873088308930903091309230933094
                                     3095309630973098309931003101310231033104
                                     3105310631073108310931103111311231133114
                                     3115311631173118311931203121312231233124
                                     3125312631273128312931303131313231333134
                                     3135313631373138313931403141314231433144
                                     3145314631473148314931503151315231533154
                                     3155315631573158315931603161316231633164
                                     3165316631673168316931703171317231733174
                                     3175317631773178317931803181318231833184
                                     3185318631873188318931903191319231933194
                                     319531963197319831993200

 *** PROJECTION   3 ATOMIC ORBITALS  3201320232033204320532063207320832093210
                                     3211321232133214321532163217321832193220
                                     3221322232233224322532263227322832293230
                                     3231323232333234323532363237323832393240
                                     3241324232433244324532463247324832493250
                                     3251325232533254325532563257325832593260
                                     3261326232633264326532663267326832693270
                                     3271327232733274327532763277327832793280
                                     3281328232833284328532863287328832893290
                                     3291329232933294329532963297329832993300
                                     3301330233033304330533063307330833093310
                                     3311331233133314331533163317331833193320
                                     3321332233233324332533263327332833293330
                                     3331333233333334333533363337333833393340
                                     3341334233433344334533463347334833493350
                                     3351335233533354335533563357335833593360
                                     3361336233633364336533663367336833693370
                                     3371337233733374337533763377337833793380
                                     3381338233833384338533863387338833893390
                                     3391339233933394339533963397339833993400
                                     3401340234033404340534063407340834093410
                                     3411341234133414341534163417341834193420
                                     3421342234233424342534263427342834293430
                                     3431343234333434343534363437343834393440
                                     3441344234433444344534463447344834493450
                                     3451345234533454345534563457345834593460
                                     3461346234633464346534663467346834693470
                                     3471347234733474347534763477347834793480
                                     3481348234833484348534863487348834893490
                                     3491349234933494349534963497349834993500
                                     3501350235033504350535063507350835093510
                                     3511351235133514351535163517351835193520
                                     3521352235233524352535263527352835293530
                                     3531353235333534353535363537353835393540
                                     3541354235433544354535463547354835493550
                                     3551355235533554355535563557355835593560
                                     3561356235633564356535663567356835693570
                                     3571357235733574357535763577357835793580
                                     3581358235833584358535863587358835893590
                                     3591359235933594359535963597359835993600
                                     3601360236033604360536063607360836093610
                                     3611361236133614361536163617361836193620
                                     3621362236233624362536263627362836293630
                                     3631363236333634363536363637363836393640
                                     3641364236433644364536463647364836493650
                                     3651365236533654365536563657365836593660
                                     3661366236633664366536663667366836693670
                                     3671367236733674367536763677367836793680
                                     3681368236833684368536863687368836893690
                                     3691369236933694369536963697369836993700
                                     3701370237033704370537063707370837093710
                                     3711371237133714371537163717371837193720
                                     3721372237233724372537263727372837293730
                                     3731373237333734373537363737373837393740
                                     3741374237433744374537463747374837493750
                                     3751375237533754375537563757375837593760
                                     3761376237633764376537663767376837693770
                                     377137723773377437753776

 *** PROJECTION   4 ATOMIC ORBITALS  3777377837793780378137823783378437853786
                                     3787378837893790379137923793379437953796
                                     3797379837993800380138023803380438053806
                                     3807380838093810381138123813381438153816
                                     3817381838193820382138223823382438253826
                                     3827382838293830383138323833383438353836
                                     3837383838393840384138423843384438453846
                                     3847384838493850385138523853385438553856
                                     3857385838593860386138623863386438653866
                                     3867386838693870387138723873387438753876
                                     3877387838793880388138823883388438853886
                                     3887388838893890389138923893389438953896
                                     3897389838993900390139023903390439053906
                                     3907390839093910391139123913391439153916
                                     3917391839193920392139223923392439253926
                                     3927392839293930393139323933393439353936
                                     3937393839393940394139423943394439453946
                                     3947394839493950395139523953395439553956
                                     3957395839593960396139623963396439653966
                                     3967396839693970397139723973397439753976
                                     3977397839793980398139823983398439853986
                                     3987398839893990399139923993399439953996
                                     3997399839994000400140024003400440054006
                                     4007400840094010401140124013401440154016
                                     4017401840194020402140224023402440254026
                                     4027402840294030403140324033403440354036
                                     4037403840394040404140424043404440454046
                                     4047404840494050405140524053405440554056
                                     4057405840594060406140624063406440654066
                                     4067406840694070407140724073407440754076
                                     4077407840794080408140824083408440854086
                                     4087408840894090409140924093409440954096
                                     4097409840994100410141024103410441054106
                                     4107410841094110411141124113411441154116
                                     4117411841194120412141224123412441254126
                                     4127412841294130413141324133413441354136
                                     4137413841394140414141424143414441454146
                                     4147414841494150415141524153415441554156
                                     4157415841594160416141624163416441654166
                                     4167416841694170417141724173417441754176
                                     4177417841794180418141824183418441854186
                                     4187418841894190419141924193419441954196
                                     4197419841994200420142024203420442054206
                                     4207420842094210421142124213421442154216
                                     4217421842194220422142224223422442254226
                                     4227422842294230423142324233423442354236
                                     4237423842394240424142424243424442454246
                                     4247424842494250425142524253425442554256
                                     4257425842594260426142624263426442654266
                                     4267426842694270427142724273427442754276
                                     4277427842794280428142824283428442854286
                                     4287428842894290429142924293429442954296
                                     4297429842994300430143024303430443054306
                                     4307430843094310431143124313431443154316
                                     4317431843194320432143224323432443254326
                                     4327432843294330433143324333433443354336
                                     4337433843394340434143424343434443454346
                                     434743484349435043514352

 BAND     INTEGRATED DOSS PER PROJECTION AND TOTAL
           1         2         3         4         T
 979   1.99083   0.00269   0.00333   0.00314   2.00000
 980   1.99135   0.00249   0.00295   0.00322   2.00000
 981   1.99118   0.00275   0.00308   0.00299   2.00000
 982   1.99114   0.00277   0.00306   0.00303   2.00000
 983   1.98048   0.00492   0.00708   0.00753   2.00000
 984   1.97638   0.00580   0.00807   0.00976   2.00000
 985   1.98226   0.00393   0.00580   0.00802   2.00000
 986   1.98371   0.00371   0.00547   0.00712   2.00000
 987   1.97635   0.00537   0.00777   0.01052   2.00000
 988   1.97912   0.00495   0.00690   0.00902   2.00000
 989   1.99102   0.00194   0.00307   0.00397   2.00000
 990   1.98990   0.00181   0.00351   0.00478   2.00000
 991   1.98955   0.00172   0.00375   0.00498   2.00000
 992   1.99057   0.00170   0.00340   0.00434   2.00000
 993   1.99472   0.00102   0.00205   0.00222   2.00000
 994   1.99380   0.00103   0.00237   0.00279   2.00000
 995   1.99357   0.00115   0.00246   0.00282   2.00000
 996   1.99393   0.00112   0.00232   0.00264   2.00000
 997   1.99285   0.00142   0.00269   0.00305   2.00000
 998   1.99292   0.00141   0.00267   0.00300   2.00000
 999   1.99259   0.00159   0.00273   0.00309   2.00000
1000   1.99360   0.00148   0.00241   0.00251   2.00000
1001   1.96003   0.00898   0.01140   0.01958   2.00000
1002   1.97538   0.00618   0.00765   0.01079   2.00000
1003   1.98797   0.00434   0.00306   0.00463   2.00000
1004   1.98802   0.00432   0.00306   0.00460   2.00000
1005   1.98174   0.00452   0.00474   0.00900   2.00000
1006   1.98766   0.00387   0.00325   0.00522   2.00000
1007   1.98325   0.00359   0.00408   0.00909   2.00000
1008   1.98324   0.00359   0.00408   0.00909   2.00000
1009   1.99103   0.00255   0.00220   0.00421   2.00000
1010   1.98340   0.00396   0.00408   0.00856   2.00000
1011   1.95509   0.00998   0.01380   0.02113   2.00000
1012   1.95374   0.01051   0.01470   0.02105   2.00000
1013   1.93688   0.01791   0.01921   0.02600   2.00000
1014   1.94005   0.01727   0.01824   0.02444   2.00000
1015   1.93279   0.01968   0.01971   0.02782   2.00000
1016   1.92470   0.01970   0.02261   0.03299   2.00000
1017   1.90305   0.02475   0.03045   0.04174   2.00000
1018   1.90501   0.02541   0.02961   0.03997   2.00000
1019   1.90677   0.02186   0.02708   0.04428   2.00000
1020   1.90480   0.02110   0.02786   0.04624   2.00000
1021   1.89388   0.02767   0.02880   0.04965   2.00000
1022   1.89412   0.02864   0.02859   0.04865   2.00000
1023   1.89302   0.02901   0.02954   0.04843   2.00000
1024   1.89206   0.02802   0.03020   0.04972   2.00000
1025   1.86890   0.03252   0.04138   0.05720   2.00000
1026   1.86720   0.03192   0.04589   0.05499   2.00000
1027   1.86997   0.03267   0.03738   0.05998   2.00000
1028   1.87001   0.03267   0.03737   0.05996   2.00000
1029   1.84879   0.03467   0.05932   0.05722   2.00000
1030   1.85080   0.03247   0.05860   0.05813   2.00000
1031   1.83101   0.04567   0.04776   0.07556   2.00000
1032   1.83468   0.04813   0.05013   0.06707   2.00000
1033   1.82191   0.05903   0.08117   0.03789   2.00000
1034   1.82526   0.05671   0.09236   0.02567   2.00000
1035   1.81763   0.05951   0.08555   0.03730   2.00000
1036   1.81763   0.05951   0.08555   0.03730   2.00000
1037   1.78608   0.07187   0.07017   0.07188   2.00000
1038   1.78608   0.07187   0.07018   0.07188   2.00000
1039   1.78895   0.09882   0.05722   0.05500   2.00000
1040   1.78677   0.11166   0.04704   0.05454   2.00000
1041   1.77229   0.09597   0.09164   0.04010   2.00000
1042   1.77229   0.09599   0.09163   0.04009   2.00000
1043   1.76508   0.10292   0.08534   0.04666   2.00000
1044   1.76366   0.10816   0.08234   0.04583   2.00000
1045   1.75406   0.09229   0.08295   0.07070   2.00000
1046   1.75623   0.11375   0.07749   0.05252   2.00000
1047   1.75913   0.12466   0.07272   0.04349   2.00000
1048   1.75920   0.12449   0.07279   0.04353   2.00000
1049   1.75452   0.15404   0.05308   0.03837   2.00000
1050   1.74695   0.14366   0.06951   0.03989   2.00000
1051   1.74685   0.13045   0.07177   0.05093   2.00000
1052   1.74684   0.13044   0.07177   0.05096   2.00000
1053   1.72744   0.10205   0.10401   0.06650   2.00000
1054   1.72744   0.10204   0.10402   0.06650   2.00000
1055   1.71806   0.11061   0.11266   0.05867   2.00000
1056   1.71806   0.11060   0.11268   0.05866   2.00000
1057   1.71971   0.14433   0.08794   0.04802   2.00000
1058   1.71971   0.14433   0.08791   0.04805   2.00000
1059   1.71028   0.13571   0.09779   0.05622   2.00000
1060   1.71028   0.13572   0.09776   0.05625   2.00000
1061   1.71009   0.17510   0.05508   0.05974   2.00000
1062   1.71008   0.17509   0.05510   0.05973   2.00000
1063   1.70124   0.16482   0.06549   0.06845   2.00000
1064   1.70124   0.16482   0.06550   0.06844   2.00000
1065   1.67375   0.08343   0.13671   0.10611   2.00000
1066   1.67374   0.08343   0.13670   0.10613   2.00000
1067   1.66353   0.10285   0.11276   0.12086   2.00000
1068   1.66687   0.08651   0.11536   0.13126   2.00000
1069   1.65810   0.07456   0.15726   0.11008   2.00000
1070   1.65881   0.08590   0.14801   0.10728   2.00000
1071   1.65685   0.07237   0.17451   0.09627   2.00000
1072   1.65685   0.07234   0.17455   0.09627   2.00000
1073   1.65336   0.08561   0.15332   0.10771   2.00000
1074   1.65335   0.08560   0.15330   0.10775   2.00000
1075   1.64836   0.10163   0.12910   0.12090   2.00000
1076   1.64835   0.10164   0.12921   0.12080   2.00000
1077   1.63907   0.10638   0.14753   0.10702   2.00000
1078   1.63908   0.10637   0.14741   0.10714   2.00000
1079   1.63960   0.09205   0.14336   0.12498   2.00000
1080   1.64026   0.07779   0.16754   0.11441   2.00000
1081   1.63298   0.07761   0.18336   0.10605   2.00000
1082   1.63297   0.07848   0.18214   0.10642   2.00000
1083   1.63201   0.07828   0.18338   0.10633   2.00000
1084   1.63105   0.07733   0.18581   0.10581   2.00000
1085   1.62466   0.11168   0.13893   0.12473   2.00000
1086   1.62466   0.11226   0.13790   0.12518   2.00000
1087   1.61280   0.12983   0.13680   0.12057   2.00000
1088   1.60773   0.14709   0.12171   0.12347   2.00000
1089   0.52884   0.37523   0.40292   0.69301   2.00000
1090   0.53504   0.37569   0.41646   0.67280   2.00000
1091   0.53569   0.37667   0.42636   0.66127   2.00000
1092   0.53585   0.37668   0.42667   0.66080   2.00000
1093   0.50935   0.49338   0.37642   0.62084   2.00000
1094   0.50936   0.49339   0.37639   0.62086   2.00000
1095   0.50418   0.48676   0.39880   0.61025   2.00000
1096   0.50420   0.48677   0.39881   0.61022   2.00000
1097   0.47161   0.48936   0.36347   0.67556   2.00000
1098   0.47161   0.48940   0.36344   0.67555   2.00000
1099   0.46226   0.46846   0.40634   0.66295   2.00000
1100   0.46226   0.46846   0.40633   0.66295   2.00000
1101   0.50597   0.41216   0.48740   0.59447   2.00000
1102   0.50599   0.41211   0.48747   0.59444   2.00000
1103   0.51007   0.50496   0.40532   0.57966   2.00000
1104   0.51007   0.50499   0.40526   0.57968   2.00000
1105   0.50049   0.54808   0.36900   0.58243   2.00000
1106   0.50050   0.54806   0.36902   0.58243   2.00000
1107   0.49753   0.47048   0.35865   0.67334   2.00000
1108   0.50095   0.54204   0.38056   0.57645   2.00000
1109   0.47633   0.52356   0.34282   0.65729   2.00000
1110   0.47554   0.48963   0.35453   0.68030   2.00000
1111   0.49216   0.52211   0.35958   0.62614   2.00000
1112   0.47753   0.52735   0.35946   0.63566   2.00000
1113   0.48025   0.49469   0.44690   0.57816   2.00000
1114   0.48025   0.49472   0.44690   0.57814   2.00000
1115   0.49684   0.52263   0.39171   0.58882   2.00000
1116   0.49684   0.52261   0.39173   0.58882   2.00000
1117   0.48619   0.51298   0.40739   0.59345   2.00000
1118   0.48618   0.51298   0.40738   0.59346   2.00000
1119   0.48237   0.54390   0.41417   0.55956   2.00000
1120   0.48007   0.58884   0.34291   0.58819   2.00000
1121   0.46831   0.41476   0.37613   0.74081   2.00000
1122   0.46831   0.41472   0.37611   0.74086   2.00000
1123   0.47477   0.46511   0.40612   0.65400   2.00000
1124   0.47479   0.46567   0.40598   0.65356   2.00000
1125   0.47382   0.59419   0.45010   0.48189   2.00000
1126   0.47383   0.59445   0.44999   0.48173   2.00000
1127   0.46326   0.53463   0.38142   0.62069   2.00000
1128   0.46331   0.53574   0.38117   0.61979   2.00000
1129   0.45976   0.64599   0.37950   0.51475   2.00000
1130   0.46600   0.59475   0.44828   0.49096   2.00000
1131   0.46760   0.44830   0.51907   0.56503   2.00000
1132   0.46960   0.47444   0.47429   0.58167   2.00000
1133   0.45012   0.57816   0.48769   0.48404   2.00000
1134   0.44259   0.55275   0.56161   0.44306   2.00000
1135   0.46219   0.54817   0.51922   0.47043   2.00000
1136   0.46949   0.58411   0.43615   0.51025   2.00000
1137   0.42076   0.68942   0.36914   0.52068   2.00000
1138   0.40332   0.70708   0.36788   0.52173   2.00000
1139   0.37955   0.73691   0.38952   0.49402   2.00000
1140   0.37955   0.73690   0.38956   0.49400   2.00000
1141   0.38767   0.71486   0.34318   0.55429   2.00000
1142   0.38769   0.71489   0.34311   0.55432   2.00000
1143   0.35875   0.57817   0.41922   0.64386   2.00000
1144   0.35875   0.57820   0.41915   0.64389   2.00000
1145   0.37337   0.62756   0.47103   0.52805   2.00000
1146   0.37338   0.62756   0.47095   0.52811   2.00000
1147   0.34722   0.54749   0.41075   0.69454   2.00000
1148   0.34720   0.54748   0.41067   0.69465   2.00000
1149   0.33320   0.56402   0.41295   0.68983   2.00000
1150   0.33322   0.56398   0.41294   0.68986   2.00000
1151   0.40490   0.84636   0.31791   0.43083   2.00000
1152   0.39223   0.81262   0.34940   0.44575   2.00000
1153   0.34305   0.49262   0.53167   0.63266   2.00000
1154   0.34307   0.49261   0.53162   0.63270   2.00000
1155   0.31181   0.46382   0.55849   0.66588   2.00000
1156   0.31180   0.46381   0.55850   0.66588   2.00000
1157   0.32802   0.50669   0.56194   0.60335   2.00000
1158   0.32034   0.47931   0.55965   0.64071   2.00000
1159   0.33442   0.47257   0.47917   0.71384   2.00000
1160   0.32319   0.48845   0.41206   0.77630   2.00000
1161   0.31544   0.57793   0.34257   0.76405   2.00000
1162   0.31125   0.57299   0.38345   0.73232   2.00000
1163   0.31680   0.55104   0.47425   0.65791   2.00000
1164   0.31586   0.59382   0.44629   0.64403   2.00000
1165   0.29067   0.57398   0.36422   0.77113   2.00000
1166   0.29069   0.57389   0.36423   0.77120   2.00000
1167   0.28363   0.64170   0.39033   0.68434   2.00000
1168   0.28363   0.64171   0.39030   0.68436   2.00000
1169   0.29645   0.53665   0.50366   0.66325   2.00000
1170   0.29646   0.53658   0.50372   0.66325   2.00000
1171   0.29498   0.52283   0.51810   0.66409   2.00000
1172   0.29498   0.52281   0.51810   0.66411   2.00000
1173   0.25404   0.66372   0.43236   0.64989   2.00000
1174   0.25401   0.66320   0.43268   0.65010   2.00000
1175   0.26434   0.65610   0.43210   0.64746   2.00000
1176   0.26433   0.65631   0.43193   0.64743   2.00000
1177   0.28863   0.57561   0.49816   0.63760   2.00000
1178   0.28998   0.62704   0.53591   0.54708   2.00000
1179   0.27403   0.80261   0.41158   0.51179   2.00000
1180   0.27405   0.80251   0.41168   0.51176   2.00000
1181   0.29516   0.77607   0.56158   0.36719   2.00000
1182   0.29520   0.77634   0.56143   0.36704   2.00000
1183   0.27580   0.52387   0.62140   0.57893   2.00000
1184   0.27587   0.52426   0.62122   0.57865   2.00000
1185   0.24023   0.39381   0.68973   0.67623   2.00000
1186   0.24019   0.39361   0.68986   0.67635   2.00000
1187   0.23674   0.48690   0.61811   0.65825   2.00000
1188   0.23678   0.48702   0.61809   0.65810   2.00000
1189   0.25595   0.69810   0.63499   0.41096   2.00000
1190   0.25593   0.69809   0.63501   0.41097   2.00000
1191   0.25038   0.64380   0.63621   0.46961   2.00000
1192   0.25038   0.64378   0.63618   0.46966   2.00000
1193   0.27176   0.38827   0.74984   0.59014   2.00000
1194   0.27175   0.38829   0.74988   0.59008   2.00000
1195   0.20487   0.61602   0.53810   0.64101   2.00000
1196   0.21970   0.54592   0.62708   0.60729   2.00000
1197   0.20722   0.74512   0.37337   0.67429   2.00000
1198   0.22787   0.75394   0.38029   0.63790   2.00000
1199   0.22768   0.68739   0.46325   0.62167   2.00000
1200   0.23258   0.64810   0.46700   0.65232   2.00000
1201   0.21201   0.76219   0.39553   0.63026   2.00000
1202   0.19251   0.79261   0.38342   0.63147   2.00000
1203   0.20980   0.78546   0.39937   0.60537   2.00000
1204   0.24460   0.74645   0.42278   0.58617   2.00000
1205   0.22348   0.76825   0.41178   0.59648   2.00000
1206   0.20761   0.74349   0.44858   0.60032   2.00000
1207   0.20318   0.72988   0.48089   0.58605   2.00000
1208   0.20318   0.72985   0.48091   0.58607   2.00000
1209   0.20615   0.79854   0.50375   0.49157   2.00000
1210   0.20614   0.79850   0.50378   0.49157   2.00000
1211   0.18876   0.91789   0.41920   0.47414   2.00000
1212   0.18876   0.91786   0.41912   0.47426   2.00000
1213   0.21912   0.88265   0.34304   0.55519   2.00000
1214   0.21912   0.88266   0.34310   0.55512   2.00000
1215   0.23323   0.73071   0.39695   0.63911   2.00000
1216   0.23322   0.73070   0.39697   0.63911   2.00000
1217   0.20286   0.74976   0.48960   0.55778   2.00000
1218   0.18971   0.80193   0.39652   0.61184   2.00000
1219   0.21650   0.69583   0.49136   0.59631   2.00000
1220   0.21650   0.69585   0.49133   0.59632   2.00000
1221   0.20495   0.71590   0.56766   0.51149   2.00000
1222   0.20297   0.63954   0.56861   0.58889   2.00000
1223   0.20669   0.58754   0.59757   0.60821   2.00000
1224   0.22949   0.57542   0.64249   0.55260   2.00000
1225   0.18376   0.47563   0.53009   0.81053   2.00000
1226   0.18957   0.54406   0.52375   0.74262   2.00000
1227   0.17570   0.74619   0.44244   0.63567   2.00000
1228   0.18734   0.61718   0.40081   0.79467   2.00000
1229   0.20089   0.47562   0.59608   0.72740   2.00000
1230   0.20487   0.55633   0.57931   0.65949   2.00000
1231   0.18443   0.63326   0.47014   0.71217   2.00000
1232   0.18442   0.63324   0.47010   0.71225   2.00000
1233   0.18298   0.51564   0.64919   0.65219   2.00000
1234   0.18297   0.51564   0.64913   0.65226   2.00000
1235   0.19881   0.44084   0.71000   0.65035   2.00000
1236   0.19881   0.44085   0.70999   0.65034   2.00000
1237   0.17716   0.59580   0.61538   0.61167   2.00000
1238   0.19783   0.46218   0.65187   0.68812   2.00000
1239   0.19309   0.49743   0.65824   0.65124   2.00000
1240   0.19002   0.42675   0.70662   0.67661   2.00000
1241   0.17822   0.37898   0.69812   0.74468   2.00000
1242   0.17224   0.35039   0.65397   0.82341   2.00000
1243   0.18005   0.41175   0.62688   0.78132   2.00000
1244   0.18007   0.41179   0.62707   0.78107   2.00000
1245   0.17160   0.48821   0.68083   0.65935   2.00000
1246   0.17163   0.48815   0.68123   0.65900   2.00000
1247   0.16822   0.60396   0.59114   0.63667   2.00000
1248   0.16820   0.60392   0.59090   0.63698   2.00000
1249   0.18128   0.78636   0.69220   0.34016   2.00000
1250   0.18128   0.78635   0.69222   0.34015   2.00000
1251   0.17512   0.71035   0.67930   0.43523   2.00000
1252   0.16409   0.81555   0.55259   0.46777   2.00000
1253   0.18320   0.55078   0.56697   0.69904   2.00000
1254   0.17928   0.56426   0.52140   0.73506   2.00000
1255   0.17420   0.40433   0.74804   0.67342   2.00000
1256   0.17420   0.40435   0.74802   0.67344   2.00000
1257   0.17768   0.71656   0.71226   0.39350   2.00000
1258   0.18577   0.62775   0.71935   0.46713   2.00000
1259   0.18007   0.55520   0.77473   0.49000   2.00000
1260   0.18008   0.55522   0.77478   0.48992   2.00000
1261   0.16202   0.55079   0.54010   0.74708   2.00000
1262   0.16146   0.52604   0.55118   0.76132   2.00000
1263   0.16405   0.45280   0.67546   0.70770   2.00000
1264   0.16754   0.29280   0.77791   0.76175   2.00000
1265   0.16669   0.32560   0.79951   0.70820   2.00000
1266   0.16243   0.40710   0.76113   0.66934   2.00000
1267   0.14532   0.56486   0.53791   0.75192   2.00000
1268   0.14532   0.56489   0.53777   0.75201   2.00000
1269   0.15170   0.47445   0.60950   0.76435   2.00000
1270   0.13630   0.44408   0.56377   0.85585   2.00000
1271   0.13508   0.58786   0.41066   0.86640   2.00000
1272   0.13509   0.58785   0.41070   0.86637   2.00000
1273   0.12416   0.63033   0.43107   0.81445   2.00000
1274   0.12416   0.63032   0.43108   0.81445   2.00000
1275   0.13893   0.48184   0.42759   0.95164   2.00000
1276   0.13753   0.50984   0.41652   0.93611   2.00000
1277   0.15232   0.32257   0.72843   0.79668   2.00000
1278   0.14817   0.35995   0.56181   0.93007   2.00000
1279   0.12821   0.68417   0.40224   0.78538   2.00000
1280   0.12422   0.65845   0.51832   0.69901   2.00000
1281   0.14396   0.76320   0.41383   0.67900   2.00000
1282   0.14397   0.76312   0.41393   0.67899   2.00000
1283   0.13189   0.92077   0.25004   0.69730   2.00000
1284   0.12755   0.81278   0.39724   0.66243   2.00000
1285   0.12789   0.66622   0.57359   0.63230   2.00000
1286   0.13047   0.69749   0.43734   0.73470   2.00000
1287   0.13686   0.40709   0.62195   0.83410   2.00000
1288   0.13632   0.44042   0.67219   0.75107   2.00000
1289   0.13358   0.46820   0.53945   0.85878   2.00000
1290   0.13472   0.38359   0.60555   0.87613   2.00000
1291   0.13376   0.39423   0.73964   0.73237   2.00000
1292   0.13168   0.45814   0.60897   0.80121   2.00000
1293   0.13175   0.48096   0.74349   0.64380   2.00000
1294   0.13672   0.48253   0.81549   0.56526   2.00000
1295   0.13721   0.57354   0.60933   0.67992   2.00000
1296   0.13499   0.60297   0.61111   0.65092   2.00000
1297   0.12250   0.48393   0.76770   0.62586   2.00000
1298   0.11419   0.41761   0.77958   0.68862   2.00000
1299   0.12362   0.51099   0.78272   0.58267   2.00000
1300   0.11953   0.63781   0.68397   0.55869   2.00000
1301   0.12327   0.46563   0.63293   0.77818   2.00000
1302   0.12344   0.44657   0.63471   0.79528   2.00000
1303   0.12609   0.66768   0.48718   0.71905   2.00000
1304   0.12824   0.59343   0.60766   0.67067   2.00000
1305   0.11063   0.59895   0.59562   0.69480   2.00000
1306   0.10577   0.51915   0.64213   0.73294   2.00000
1307   0.11341   0.49687   0.73942   0.65030   2.00000
1308   0.11083   0.46477   0.75990   0.66449   2.00000
1309   0.10764   0.56304   0.63002   0.69930   2.00000
1310   0.10763   0.56306   0.63011   0.69920   2.00000
1311   0.10394   0.46930   0.69124   0.73552   2.00000
1312   0.10393   0.46948   0.69111   0.73548   2.00000
1313   0.10045   0.50299   0.79706   0.59950   2.00000
1314   0.10045   0.50314   0.79692   0.59949   2.00000
1315   0.09553   0.30970   1.03827   0.55649   2.00000
1316   0.10272   0.33512   0.95935   0.60281   2.00000
1317   0.09058   0.49569   0.72008   0.69366   2.00000
1318   0.09057   0.49571   0.72007   0.69364   2.00000
1319   0.09597   0.52607   0.71939   0.65857   2.00000
1320   0.09597   0.52607   0.71936   0.65861   2.00000
1321   0.10120   0.36689   0.91355   0.61835   2.00000
1322   0.10120   0.36722   0.91319   0.61839   2.00000
1323   0.09509   0.36407   1.02251   0.51833   2.00000
1324   0.09509   0.36400   1.02265   0.51825   2.00000
1325   0.08987   0.36101   0.93138   0.61775   2.00000
1326   0.08988   0.36099   0.93168   0.61745   2.00000
1327   0.09705   0.41703   0.76992   0.71600   2.00000
1328   0.09706   0.41705   0.76985   0.71603   2.00000
1329   0.09465   0.36397   0.67231   0.86907   2.00000
1330   0.09101   0.33117   0.77883   0.79899   2.00000
1331   0.08625   0.39097   0.71801   0.80478   2.00000
1332   0.09037   0.38891   0.63956   0.88116   2.00000
1333   0.09237   0.49395   0.82842   0.58525   2.00000
1334   0.09288   0.49342   0.87749   0.53620   2.00000
1335   0.08051   0.47035   0.57589   0.87325   2.00000
1336   0.07927   0.50027   0.54051   0.87995   2.00000
1337   0.08744   0.53145   0.78998   0.59113   2.00000
1338   0.09265   0.50561   0.92318   0.47855   2.00000
1339   0.07957   0.37272   0.78773   0.75997   2.00000
1340   0.08210   0.36700   0.87420   0.67669   2.00000
1341   0.07769   0.53309   0.78173   0.60749   2.00000
1342   0.07196   0.65166   0.77314   0.50323   2.00000
1343   0.07759   0.61842   0.72270   0.58129   2.00000
1344   0.08133   0.57081   0.75936   0.58851   2.00000
1345   0.07996   0.52543   1.02278   0.37183   2.00000
1346   0.08037   0.53528   0.96267   0.42168   2.00000
1347   0.07867   0.48767   0.91866   0.51499   2.00000
1348   0.08172   0.47413   1.04265   0.40150   2.00000
1349   0.07203   0.45795   1.20285   0.26717   2.00000
1350   0.07202   0.45784   1.20299   0.26714   2.00000
1351   0.07400   0.56311   1.03495   0.32794   2.00000
1352   0.07226   0.53065   1.03235   0.36474   2.00000
1353   0.07118   0.40442   1.11394   0.41046   2.00000
1354   0.07119   0.40443   1.11399   0.41040   2.00000
1355   0.07303   0.44830   1.11551   0.36316   2.00000
1356   0.07298   0.44670   1.11645   0.36386   2.00000
1357   0.06659   0.41983   1.17139   0.34218   2.00000
1358   0.06664   0.42135   1.17063   0.34137   2.00000
1359   0.06735   0.43750   1.16119   0.33396   2.00000
1360   0.06731   0.44012   1.14163   0.35093   2.00000
1361   0.05803   1.09492   0.67491   0.17214   2.00000
1362   0.05203   1.12267   0.63986   0.18544   2.00000
1363   0.05792   1.05234   0.74891   0.14084   2.00000
1364   0.05619   1.01774   0.79980   0.12627   2.00000
1365   0.04783   0.93552   0.86090   0.15574   2.00000
1366   0.04790   1.08098   0.72754   0.14357   2.00000
1367   0.04604   1.30988   0.54401   0.10007   2.00000
1368   0.04604   1.30980   0.54404   0.10012   2.00000
1369   0.04344   1.23665   0.56774   0.15217   2.00000
1370   0.04344   1.23661   0.56777   0.15218   2.00000
1371   0.04419   1.19816   0.55181   0.20585   2.00000
1372   0.04419   1.19813   0.55183   0.20585   2.00000
1373   0.04073   1.09246   0.65216   0.21465   2.00000
1374   0.04073   1.09248   0.65214   0.21465   2.00000
1375   0.03594   1.04646   0.68185   0.23576   2.00000
1376   0.03478   0.96461   0.76552   0.23509   2.00000
1377   1.46845   0.15180   0.19381   0.18595   2.00000
1378   1.44576   0.16263   0.19956   0.19205   2.00000
1379   1.41728   0.17800   0.20329   0.20144   2.00000
1380   1.40255   0.16487   0.21395   0.21864   2.00000
1381   1.40958   0.16308   0.24046   0.18689   2.00000
1382   1.40420   0.19904   0.20874   0.18802   2.00000
1383   1.41559   0.15881   0.21144   0.21417   2.00000
1384   1.41559   0.15881   0.21144   0.21416   2.00000
1385   1.42353   0.18101   0.18725   0.20820   2.00000
1386   1.42014   0.18075   0.19701   0.20210   2.00000
1387   1.41979   0.17881   0.20669   0.19471   2.00000
1388   1.41977   0.17881   0.20670   0.19471   2.00000
1389   1.45019   0.16683   0.20820   0.17478   2.00000
1390   1.44754   0.17703   0.20026   0.17517   2.00000
1391   1.51876   0.14379   0.17433   0.16312   2.00000
1392   1.55303   0.12353   0.16711   0.15634   2.00000
1393   1.60654   0.10413   0.14374   0.14559   2.00000
1394   1.61105   0.11016   0.13953   0.13926   2.00000
1395   1.53912   0.13577   0.18169   0.14343   2.00000
1396   1.53912   0.13577   0.18168   0.14343   2.00000
1397   1.57685   0.14131   0.14932   0.13251   2.00000
1398   1.57277   0.13431   0.15896   0.13396   2.00000
1399   1.57592   0.12250   0.16516   0.13642   2.00000
1400   1.57593   0.12250   0.16516   0.13641   2.00000
1401   1.58172   0.11335   0.15499   0.14994   2.00000
1402   1.58173   0.11334   0.15499   0.14993   2.00000
1403   1.57862   0.11258   0.16204   0.14676   2.00000
1404   1.57864   0.11258   0.16204   0.14674   2.00000
1405   1.58310   0.11745   0.15962   0.13984   2.00000
1406   1.59556   0.11277   0.16059   0.13109   2.00000
1407   1.51370   0.14073   0.16976   0.17582   2.00000
1408   1.51406   0.14429   0.16802   0.17363   2.00000
1409   1.53029   0.11977   0.16218   0.18776   2.00000
1410   1.52658   0.12059   0.16295   0.18988   2.00000
1411   1.49153   0.13762   0.16028   0.21058   2.00000
1412   1.49298   0.13754   0.15458   0.21489   2.00000
1413   1.54933   0.11780   0.13662   0.19625   2.00000
1414   1.53204   0.11787   0.13937   0.21072   2.00000
1415   1.52847   0.11254   0.13766   0.22133   2.00000
1416   1.51269   0.12950   0.14134   0.21647   2.00000
1417   1.51789   0.10057   0.15664   0.22489   2.00000
1418   1.51807   0.10062   0.15663   0.22468   2.00000
1419   1.52383   0.11524   0.17336   0.18757   2.00000
1420   1.52380   0.11525   0.17337   0.18759   2.00000
1421   1.56000   0.12339   0.14555   0.17105   2.00000
1422   1.56000   0.12340   0.14555   0.17105   2.00000
1423   1.54703   0.12186   0.15600   0.17511   2.00000
1424   1.54704   0.12185   0.15600   0.17511   2.00000
1425   1.53075   0.13015   0.14359   0.19551   2.00000
1426   1.53072   0.13018   0.14359   0.19551   2.00000
[...]
-rw-r--r-- 1 felipe users         0 Dec  1 09:47 fort.75.pe075
-rw-r--r-- 1 felipe users         0 Dec  1 09:47 fort.75.pe076
-rw-r--r-- 1 felipe users         0 Dec  1 09:47 fort.75.pe077
-rw-r--r-- 1 felipe users         0 Dec  1 09:47 fort.75.pe078
-rw-r--r-- 1 felipe users         0 Dec  1 09:47 fort.75.pe079
-rw-r--r-- 1 felipe users         0 Dec  1 09:47 fort.75.pe080
-rw-r--r-- 1 felipe users         0 Dec  1 09:47 fort.75.pe081
-rw-r--r-- 1 felipe users         0 Dec  1 09:47 fort.75.pe082
-rw-r--r-- 1 felipe users         0 Dec  1 09:47 fort.75.pe083
-rw-r--r-- 1 felipe users         0 Dec  1 09:47 fort.75.pe084
-rw-r--r-- 1 felipe users         0 Dec  1 09:47 fort.75.pe085
-rw-r--r-- 1 felipe users         0 Dec  1 09:47 fort.75.pe086
-rw-r--r-- 1 felipe users         0 Dec  1 09:47 fort.75.pe087
-rw-r--r-- 1 felipe users         0 Dec  1 09:47 fort.75.pe088
-rw-r--r-- 1 felipe users         0 Dec  1 09:47 fort.75.pe089
-rw-r--r-- 1 felipe users         0 Dec  1 09:47 fort.75.pe090
-rw-r--r-- 1 felipe users         0 Dec  1 09:47 fort.75.pe091
-rw-r--r-- 1 felipe users         0 Dec  1 09:47 fort.75.pe092
-rw-r--r-- 1 felipe users         0 Dec  1 09:47 fort.75.pe093
-rw-r--r-- 1 felipe users         0 Dec  1 09:47 fort.75.pe094
-rw-r--r-- 1 felipe users         0 Dec  1 09:47 fort.75.pe095
-rw-r--r-- 1 felipe users         0 Dec  1 09:47 fort.75.pe096
-rw-r--r-- 1 felipe users         0 Dec  1 09:47 fort.75.pe097
-rw-r--r-- 1 felipe users         0 Dec  1 09:47 fort.75.pe098
-rw-r--r-- 1 felipe users         0 Dec  1 09:47 fort.75.pe099
-rw-r--r-- 1 felipe users         0 Dec  1 09:47 fort.75.pe100
-rw-r--r-- 1 felipe users         0 Dec  1 09:47 fort.75.pe101
-rw-r--r-- 1 felipe users         0 Dec  1 09:47 fort.75.pe102
-rw-r--r-- 1 felipe users         0 Dec  1 09:47 fort.75.pe103
-rw-r--r-- 1 felipe users         0 Dec  1 09:47 fort.75.pe104
-rw-r--r-- 1 felipe users         0 Dec  1 09:47 fort.75.pe105
-rw-r--r-- 1 felipe users         0 Dec  1 09:47 fort.75.pe106
-rw-r--r-- 1 felipe users         0 Dec  1 09:47 fort.75.pe107
-rw-r--r-- 1 felipe users         0 Dec  1 09:47 fort.75.pe108
-rw-r--r-- 1 felipe users         0 Dec  1 09:47 fort.75.pe109
-rw-r--r-- 1 felipe users         0 Dec  1 09:47 fort.75.pe110
-rw-r--r-- 1 felipe users         0 Dec  1 09:47 fort.75.pe111
-rw-r--r-- 1 felipe users         0 Dec  1 09:47 fort.75.pe112
-rw-r--r-- 1 felipe users         0 Dec  1 09:47 fort.75.pe113
-rw-r--r-- 1 felipe users         0 Dec  1 09:47 fort.75.pe114
-rw-r--r-- 1 felipe users         0 Dec  1 09:47 fort.75.pe115
-rw-r--r-- 1 felipe users         0 Dec  1 09:47 fort.75.pe116
-rw-r--r-- 1 felipe users         0 Dec  1 09:47 fort.75.pe117
-rw-r--r-- 1 felipe users         0 Dec  1 09:47 fort.75.pe118
-rw-r--r-- 1 felipe users         0 Dec  1 09:47 fort.75.pe119
-rw-r--r-- 1 felipe users         0 Dec  1 09:47 fort.75.pe120
-rw-r--r-- 1 felipe users         0 Dec  1 09:47 fort.75.pe121
-rw-r--r-- 1 felipe users         0 Dec  1 09:47 fort.75.pe122
-rw-r--r-- 1 felipe users         0 Dec  1 09:47 fort.75.pe123
-rw-r--r-- 1 felipe users         0 Dec  1 09:47 fort.75.pe124
-rw-r--r-- 1 felipe users         0 Dec  1 09:47 fort.75.pe125
-rw-r--r-- 1 felipe users         0 Dec  1 09:47 fort.75.pe126
-rw-r--r-- 1 felipe users         0 Dec  1 09:47 fort.75.pe127
-rw-r--r-- 1 felipe users         0 Dec  1 09:47 fort.77.pe000
-rw-r--r-- 1 felipe users         0 Dec  1 09:47 fort.77.pe001
-rw-r--r-- 1 felipe users         0 Dec  1 09:47 fort.77.pe002
-rw-r--r-- 1 felipe users         0 Dec  1 09:47 fort.77.pe003
-rw-r--r-- 1 felipe users         0 Dec  1 09:47 fort.77.pe004
-rw-r--r-- 1 felipe users         0 Dec  1 09:47 fort.77.pe005
-rw-r--r-- 1 felipe users         0 Dec  1 09:47 fort.77.pe006
-rw-r--r-- 1 felipe users         0 Dec  1 09:47 fort.77.pe007
-rw-r--r-- 1 felipe users         0 Dec  1 09:47 fort.77.pe008
-rw-r--r-- 1 felipe users         0 Dec  1 09:47 fort.77.pe009
-rw-r--r-- 1 felipe users         0 Dec  1 09:47 fort.77.pe010
-rw-r--r-- 1 felipe users         0 Dec  1 09:47 fort.77.pe011
-rw-r--r-- 1 felipe users         0 Dec  1 09:47 fort.77.pe012
-rw-r--r-- 1 felipe users         0 Dec  1 09:47 fort.77.pe013
-rw-r--r-- 1 felipe users         0 Dec  1 09:47 fort.77.pe014
-rw-r--r-- 1 felipe users         0 Dec  1 09:47 fort.77.pe015
-rw-r--r-- 1 felipe users         0 Dec  1 09:47 fort.77.pe016
-rw-r--r-- 1 felipe users         0 Dec  1 09:47 fort.77.pe017
-rw-r--r-- 1 felipe users         0 Dec  1 09:47 fort.77.pe018
-rw-r--r-- 1 felipe users         0 Dec  1 09:47 fort.77.pe019
-rw-r--r-- 1 felipe users         0 Dec  1 09:47 fort.77.pe020
-rw-r--r-- 1 felipe users         0 Dec  1 09:47 fort.77.pe021
-rw-r--r-- 1 felipe users         0 Dec  1 09:47 fort.77.pe022
-rw-r--r-- 1 felipe users         0 Dec  1 09:47 fort.77.pe023
-rw-r--r-- 1 felipe users         0 Dec  1 09:47 fort.77.pe024
-rw-r--r-- 1 felipe users         0 Dec  1 09:47 fort.77.pe025
-rw-r--r-- 1 felipe users         0 Dec  1 09:47 fort.77.pe026
-rw-r--r-- 1 felipe users         0 Dec  1 09:47 fort.77.pe027
-rw-r--r-- 1 felipe users         0 Dec  1 09:47 fort.77.pe028
-rw-r--r-- 1 felipe users         0 Dec  1 09:47 fort.77.pe029
-rw-r--r-- 1 felipe users         0 Dec  1 09:47 fort.77.pe030
-rw-r--r-- 1 felipe users         0 Dec  1 09:47 fort.77.pe031
-rw-r--r-- 1 felipe users         0 Dec  1 09:47 fort.77.pe032
-rw-r--r-- 1 felipe users         0 Dec  1 09:47 fort.77.pe033
-rw-r--r-- 1 felipe users         0 Dec  1 09:47 fort.77.pe034
-rw-r--r-- 1 felipe users         0 Dec  1 09:47 fort.77.pe035
-rw-r--r-- 1 felipe users         0 Dec  1 09:47 fort.77.pe036
-rw-r--r-- 1 felipe users         0 Dec  1 09:47 fort.77.pe037
-rw-r--r-- 1 felipe users         0 Dec  1 09:47 fort.77.pe038
-rw-r--r-- 1 felipe users         0 Dec  1 09:47 fort.77.pe039
-rw-r--r-- 1 felipe users         0 Dec  1 09:47 fort.77.pe040
-rw-r--r-- 1 felipe users         0 Dec  1 09:47 fort.77.pe041
-rw-r--r-- 1 felipe users         0 Dec  1 09:47 fort.77.pe042
-rw-r--r-- 1 felipe users         0 Dec  1 09:47 fort.77.pe043
-rw-r--r-- 1 felipe users         0 Dec  1 09:47 fort.77.pe044
-rw-r--r-- 1 felipe users         0 Dec  1 09:47 fort.77.pe045
-rw-r--r-- 1 felipe users         0 Dec  1 09:47 fort.77.pe046
-rw-r--r-- 1 felipe users         0 Dec  1 09:47 fort.77.pe047
-rw-r--r-- 1 felipe users         0 Dec  1 09:47 fort.77.pe048
-rw-r--r-- 1 felipe users         0 Dec  1 09:47 fort.77.pe049
-rw-r--r-- 1 felipe users         0 Dec  1 09:47 fort.77.pe050
-rw-r--r-- 1 felipe users         0 Dec  1 09:47 fort.77.pe051
-rw-r--r-- 1 felipe users         0 Dec  1 09:47 fort.77.pe052
-rw-r--r-- 1 felipe users         0 Dec  1 09:47 fort.77.pe053
-rw-r--r-- 1 felipe users         0 Dec  1 09:47 fort.77.pe054
-rw-r--r-- 1 felipe users         0 Dec  1 09:47 fort.77.pe055
-rw-r--r-- 1 felipe users         0 Dec  1 09:47 fort.77.pe056
-rw-r--r-- 1 felipe users         0 Dec  1 09:47 fort.77.pe057
-rw-r--r-- 1 felipe users         0 Dec  1 09:47 fort.77.pe058
-rw-r--r-- 1 felipe users         0 Dec  1 09:47 fort.77.pe059
-rw-r--r-- 1 felipe users         0 Dec  1 09:47 fort.77.pe060
-rw-r--r-- 1 felipe users         0 Dec  1 09:47 fort.77.pe061
-rw-r--r-- 1 felipe users         0 Dec  1 09:47 fort.77.pe062
-rw-r--r-- 1 felipe users         0 Dec  1 09:47 fort.77.pe063
-rw-r--r-- 1 felipe users         0 Dec  1 09:47 fort.77.pe064
-rw-r--r-- 1 felipe users         0 Dec  1 09:47 fort.77.pe065
-rw-r--r-- 1 felipe users         0 Dec  1 09:47 fort.77.pe066
-rw-r--r-- 1 felipe users         0 Dec  1 09:47 fort.77.pe067
-rw-r--r-- 1 felipe users         0 Dec  1 09:47 fort.77.pe068
-rw-r--r-- 1 felipe users         0 Dec  1 09:47 fort.77.pe069
-rw-r--r-- 1 felipe users         0 Dec  1 09:47 fort.77.pe070
-rw-r--r-- 1 felipe users         0 Dec  1 09:47 fort.77.pe071
-rw-r--r-- 1 felipe users         0 Dec  1 09:47 fort.77.pe072
-rw-r--r-- 1 felipe users         0 Dec  1 09:47 fort.77.pe073
-rw-r--r-- 1 felipe users         0 Dec  1 09:47 fort.77.pe074
-rw-r--r-- 1 felipe users         0 Dec  1 09:47 fort.77.pe075
-rw-r--r-- 1 felipe users         0 Dec  1 09:47 fort.77.pe076
-rw-r--r-- 1 felipe users         0 Dec  1 09:47 fort.77.pe077
-rw-r--r-- 1 felipe users         0 Dec  1 09:47 fort.77.pe078
-rw-r--r-- 1 felipe users         0 Dec  1 09:47 fort.77.pe079
-rw-r--r-- 1 felipe users         0 Dec  1 09:47 fort.77.pe080
-rw-r--r-- 1 felipe users         0 Dec  1 09:47 fort.77.pe081
-rw-r--r-- 1 felipe users         0 Dec  1 09:47 fort.77.pe082
-rw-r--r-- 1 felipe users         0 Dec  1 09:47 fort.77.pe083
-rw-r--r-- 1 felipe users         0 Dec  1 09:47 fort.77.pe084
-rw-r--r-- 1 felipe users         0 Dec  1 09:47 fort.77.pe085
-rw-r--r-- 1 felipe users         0 Dec  1 09:47 fort.77.pe086
-rw-r--r-- 1 felipe users         0 Dec  1 09:47 fort.77.pe087
-rw-r--r-- 1 felipe users         0 Dec  1 09:47 fort.77.pe088
-rw-r--r-- 1 felipe users         0 Dec  1 09:47 fort.77.pe089
-rw-r--r-- 1 felipe users         0 Dec  1 09:47 fort.77.pe090
-rw-r--r-- 1 felipe users         0 Dec  1 09:47 fort.77.pe091
-rw-r--r-- 1 felipe users         0 Dec  1 09:47 fort.77.pe092
-rw-r--r-- 1 felipe users         0 Dec  1 09:47 fort.77.pe093
-rw-r--r-- 1 felipe users         0 Dec  1 09:47 fort.77.pe094
-rw-r--r-- 1 felipe users         0 Dec  1 09:47 fort.77.pe095
-rw-r--r-- 1 felipe users         0 Dec  1 09:47 fort.77.pe096
-rw-r--r-- 1 felipe users         0 Dec  1 09:47 fort.77.pe097
-rw-r--r-- 1 felipe users         0 Dec  1 09:47 fort.77.pe098
-rw-r--r-- 1 felipe users         0 Dec  1 09:47 fort.77.pe099
-rw-r--r-- 1 felipe users         0 Dec  1 09:47 fort.77.pe100
-rw-r--r-- 1 felipe users         0 Dec  1 09:47 fort.77.pe101
-rw-r--r-- 1 felipe users         0 Dec  1 09:47 fort.77.pe102
-rw-r--r-- 1 felipe users         0 Dec  1 09:47 fort.77.pe103
-rw-r--r-- 1 felipe users         0 Dec  1 09:47 fort.77.pe104
-rw-r--r-- 1 felipe users         0 Dec  1 09:47 fort.77.pe105
-rw-r--r-- 1 felipe users         0 Dec  1 09:47 fort.77.pe106
-rw-r--r-- 1 felipe users         0 Dec  1 09:47 fort.77.pe107
-rw-r--r-- 1 felipe users         0 Dec  1 09:47 fort.77.pe108
-rw-r--r-- 1 felipe users         0 Dec  1 09:47 fort.77.pe109
-rw-r--r-- 1 felipe users         0 Dec  1 09:47 fort.77.pe110
-rw-r--r-- 1 felipe users         0 Dec  1 09:47 fort.77.pe111
-rw-r--r-- 1 felipe users         0 Dec  1 09:47 fort.77.pe112
-rw-r--r-- 1 felipe users         0 Dec  1 09:47 fort.77.pe113
-rw-r--r-- 1 felipe users         0 Dec  1 09:47 fort.77.pe114
-rw-r--r-- 1 felipe users         0 Dec  1 09:47 fort.77.pe115
-rw-r--r-- 1 felipe users         0 Dec  1 09:47 fort.77.pe116
-rw-r--r-- 1 felipe users         0 Dec  1 09:47 fort.77.pe117
-rw-r--r-- 1 felipe users         0 Dec  1 09:47 fort.77.pe118
-rw-r--r-- 1 felipe users         0 Dec  1 09:47 fort.77.pe119
-rw-r--r-- 1 felipe users         0 Dec  1 09:47 fort.77.pe120
-rw-r--r-- 1 felipe users         0 Dec  1 09:47 fort.77.pe121
-rw-r--r-- 1 felipe users         0 Dec  1 09:47 fort.77.pe122
-rw-r--r-- 1 felipe users         0 Dec  1 09:47 fort.77.pe123
-rw-r--r-- 1 felipe users         0 Dec  1 09:47 fort.77.pe124
-rw-r--r-- 1 felipe users         0 Dec  1 09:47 fort.77.pe125
-rw-r--r-- 1 felipe users         0 Dec  1 09:47 fort.77.pe126
-rw-r--r-- 1 felipe users         0 Dec  1 09:47 fort.77.pe127
-rw-r--r-- 1 felipe users         0 Dec  1 09:47 fort.8.pe000
-rw-r--r-- 1 felipe users         0 Dec  1 09:47 fort.8.pe001
-rw-r--r-- 1 felipe users         0 Dec  1 09:47 fort.8.pe002
-rw-r--r-- 1 felipe users         0 Dec  1 09:47 fort.8.pe003
-rw-r--r-- 1 felipe users         0 Dec  1 09:47 fort.8.pe004
-rw-r--r-- 1 felipe users         0 Dec  1 09:47 fort.8.pe005
-rw-r--r-- 1 felipe users         0 Dec  1 09:47 fort.8.pe006
-rw-r--r-- 1 felipe users         0 Dec  1 09:47 fort.8.pe007
-rw-r--r-- 1 felipe users         0 Dec  1 09:47 fort.8.pe008
-rw-r--r-- 1 felipe users         0 Dec  1 09:47 fort.8.pe009
-rw-r--r-- 1 felipe users         0 Dec  1 09:47 fort.8.pe010
-rw-r--r-- 1 felipe users         0 Dec  1 09:47 fort.8.pe011
-rw-r--r-- 1 felipe users         0 Dec  1 09:47 fort.8.pe012
-rw-r--r-- 1 felipe users         0 Dec  1 09:47 fort.8.pe013
-rw-r--r-- 1 felipe users         0 Dec  1 09:47 fort.8.pe014
-rw-r--r-- 1 felipe users         0 Dec  1 09:47 fort.8.pe015
-rw-r--r-- 1 felipe users         0 Dec  1 09:47 fort.8.pe016
-rw-r--r-- 1 felipe users         0 Dec  1 09:47 fort.8.pe017
-rw-r--r-- 1 felipe users         0 Dec  1 09:47 fort.8.pe018
-rw-r--r-- 1 felipe users         0 Dec  1 09:47 fort.8.pe019
-rw-r--r-- 1 felipe users         0 Dec  1 09:47 fort.8.pe020
-rw-r--r-- 1 felipe users         0 Dec  1 09:47 fort.8.pe021
-rw-r--r-- 1 felipe users         0 Dec  1 09:47 fort.8.pe022
-rw-r--r-- 1 felipe users         0 Dec  1 09:47 fort.8.pe023
-rw-r--r-- 1 felipe users         0 Dec  1 09:47 fort.8.pe024
-rw-r--r-- 1 felipe users         0 Dec  1 09:47 fort.8.pe025
-rw-r--r-- 1 felipe users         0 Dec  1 09:47 fort.8.pe026
-rw-r--r-- 1 felipe users         0 Dec  1 09:47 fort.8.pe027
-rw-r--r-- 1 felipe users         0 Dec  1 09:47 fort.8.pe028
-rw-r--r-- 1 felipe users         0 Dec  1 09:47 fort.8.pe029
-rw-r--r-- 1 felipe users         0 Dec  1 09:47 fort.8.pe030
-rw-r--r-- 1 felipe users         0 Dec  1 09:47 fort.8.pe031
-rw-r--r-- 1 felipe users         0 Dec  1 09:47 fort.8.pe032
-rw-r--r-- 1 felipe users         0 Dec  1 09:47 fort.8.pe033
-rw-r--r-- 1 felipe users         0 Dec  1 09:47 fort.8.pe034
-rw-r--r-- 1 felipe users         0 Dec  1 09:47 fort.8.pe035
-rw-r--r-- 1 felipe users         0 Dec  1 09:47 fort.8.pe036
-rw-r--r-- 1 felipe users         0 Dec  1 09:47 fort.8.pe037
-rw-r--r-- 1 felipe users         0 Dec  1 09:47 fort.8.pe038
-rw-r--r-- 1 felipe users         0 Dec  1 09:47 fort.8.pe039
-rw-r--r-- 1 felipe users         0 Dec  1 09:47 fort.8.pe040
-rw-r--r-- 1 felipe users         0 Dec  1 09:47 fort.8.pe041
-rw-r--r-- 1 felipe users         0 Dec  1 09:47 fort.8.pe042
-rw-r--r-- 1 felipe users         0 Dec  1 09:47 fort.8.pe043
-rw-r--r-- 1 felipe users         0 Dec  1 09:47 fort.8.pe044
-rw-r--r-- 1 felipe users         0 Dec  1 09:47 fort.8.pe045
-rw-r--r-- 1 felipe users         0 Dec  1 09:47 fort.8.pe046
-rw-r--r-- 1 felipe users         0 Dec  1 09:47 fort.8.pe047
-rw-r--r-- 1 felipe users         0 Dec  1 09:47 fort.8.pe048
-rw-r--r-- 1 felipe users         0 Dec  1 09:47 fort.8.pe049
-rw-r--r-- 1 felipe users         0 Dec  1 09:47 fort.8.pe050
-rw-r--r-- 1 felipe users         0 Dec  1 09:47 fort.8.pe051
-rw-r--r-- 1 felipe users         0 Dec  1 09:47 fort.8.pe052
-rw-r--r-- 1 felipe users         0 Dec  1 09:47 fort.8.pe053
-rw-r--r-- 1 felipe users         0 Dec  1 09:47 fort.8.pe054
-rw-r--r-- 1 felipe users         0 Dec  1 09:47 fort.8.pe055
-rw-r--r-- 1 felipe users         0 Dec  1 09:47 fort.8.pe056
-rw-r--r-- 1 felipe users         0 Dec  1 09:47 fort.8.pe057
-rw-r--r-- 1 felipe users         0 Dec  1 09:47 fort.8.pe058
-rw-r--r-- 1 felipe users         0 Dec  1 09:47 fort.8.pe059
-rw-r--r-- 1 felipe users         0 Dec  1 09:47 fort.8.pe060
-rw-r--r-- 1 felipe users         0 Dec  1 09:47 fort.8.pe061
-rw-r--r-- 1 felipe users         0 Dec  1 09:47 fort.8.pe062
-rw-r--r-- 1 felipe users         0 Dec  1 09:47 fort.8.pe063
-rw-r--r-- 1 felipe users         0 Dec  1 09:47 fort.8.pe064
-rw-r--r-- 1 felipe users         0 Dec  1 09:47 fort.8.pe065
-rw-r--r-- 1 felipe users         0 Dec  1 09:47 fort.8.pe066
-rw-r--r-- 1 felipe users         0 Dec  1 09:47 fort.8.pe067
-rw-r--r-- 1 felipe users         0 Dec  1 09:47 fort.8.pe068
-rw-r--r-- 1 felipe users         0 Dec  1 09:47 fort.8.pe069
-rw-r--r-- 1 felipe users         0 Dec  1 09:47 fort.8.pe070
-rw-r--r-- 1 felipe users         0 Dec  1 09:47 fort.8.pe071
-rw-r--r-- 1 felipe users         0 Dec  1 09:47 fort.8.pe072
-rw-r--r-- 1 felipe users         0 Dec  1 09:47 fort.8.pe073
-rw-r--r-- 1 felipe users         0 Dec  1 09:47 fort.8.pe074
-rw-r--r-- 1 felipe users         0 Dec  1 09:47 fort.8.pe075
-rw-r--r-- 1 felipe users         0 Dec  1 09:47 fort.8.pe076
-rw-r--r-- 1 felipe users         0 Dec  1 09:47 fort.8.pe077
-rw-r--r-- 1 felipe users         0 Dec  1 09:47 fort.8.pe078
-rw-r--r-- 1 felipe users         0 Dec  1 09:47 fort.8.pe079
-rw-r--r-- 1 felipe users         0 Dec  1 09:47 fort.8.pe080
-rw-r--r-- 1 felipe users         0 Dec  1 09:47 fort.8.pe081
-rw-r--r-- 1 felipe users         0 Dec  1 09:47 fort.8.pe082
-rw-r--r-- 1 felipe users         0 Dec  1 09:47 fort.8.pe083
-rw-r--r-- 1 felipe users         0 Dec  1 09:47 fort.8.pe084
-rw-r--r-- 1 felipe users         0 Dec  1 09:47 fort.8.pe085
-rw-r--r-- 1 felipe users         0 Dec  1 09:47 fort.8.pe086
-rw-r--r-- 1 felipe users         0 Dec  1 09:47 fort.8.pe087
-rw-r--r-- 1 felipe users         0 Dec  1 09:47 fort.8.pe088
-rw-r--r-- 1 felipe users         0 Dec  1 09:47 fort.8.pe089
-rw-r--r-- 1 felipe users         0 Dec  1 09:47 fort.8.pe090
-rw-r--r-- 1 felipe users         0 Dec  1 09:47 fort.8.pe091
-rw-r--r-- 1 felipe users         0 Dec  1 09:47 fort.8.pe092
-rw-r--r-- 1 felipe users         0 Dec  1 09:47 fort.8.pe093
-rw-r--r-- 1 felipe users         0 Dec  1 09:47 fort.8.pe094
-rw-r--r-- 1 felipe users         0 Dec  1 09:47 fort.8.pe095
-rw-r--r-- 1 felipe users         0 Dec  1 09:47 fort.8.pe096
-rw-r--r-- 1 felipe users         0 Dec  1 09:47 fort.8.pe097
-rw-r--r-- 1 felipe users         0 Dec  1 09:47 fort.8.pe098
-rw-r--r-- 1 felipe users         0 Dec  1 09:47 fort.8.pe099
-rw-r--r-- 1 felipe users         0 Dec  1 09:47 fort.8.pe100
-rw-r--r-- 1 felipe users         0 Dec  1 09:47 fort.8.pe101
-rw-r--r-- 1 felipe users         0 Dec  1 09:47 fort.8.pe102
-rw-r--r-- 1 felipe users         0 Dec  1 09:47 fort.8.pe103
-rw-r--r-- 1 felipe users         0 Dec  1 09:47 fort.8.pe104
-rw-r--r-- 1 felipe users         0 Dec  1 09:47 fort.8.pe105
-rw-r--r-- 1 felipe users         0 Dec  1 09:47 fort.8.pe106
-rw-r--r-- 1 felipe users         0 Dec  1 09:47 fort.8.pe107
-rw-r--r-- 1 felipe users         0 Dec  1 09:47 fort.8.pe108
-rw-r--r-- 1 felipe users         0 Dec  1 09:47 fort.8.pe109
-rw-r--r-- 1 felipe users         0 Dec  1 09:47 fort.8.pe110
-rw-r--r-- 1 felipe users         0 Dec  1 09:47 fort.8.pe111
-rw-r--r-- 1 felipe users         0 Dec  1 09:47 fort.8.pe112
-rw-r--r-- 1 felipe users         0 Dec  1 09:47 fort.8.pe113
-rw-r--r-- 1 felipe users         0 Dec  1 09:47 fort.8.pe114
-rw-r--r-- 1 felipe users         0 Dec  1 09:47 fort.8.pe115
-rw-r--r-- 1 felipe users         0 Dec  1 09:47 fort.8.pe116
-rw-r--r-- 1 felipe users         0 Dec  1 09:47 fort.8.pe117
-rw-r--r-- 1 felipe users         0 Dec  1 09:47 fort.8.pe118
-rw-r--r-- 1 felipe users         0 Dec  1 09:47 fort.8.pe119
-rw-r--r-- 1 felipe users 151519240 Dec  1 09:57 fort.8.pe120
-rw-r--r-- 1 felipe users 151519240 Dec  1 09:57 fort.8.pe121
-rw-r--r-- 1 felipe users 151519240 Dec  1 09:57 fort.8.pe122
-rw-r--r-- 1 felipe users 151519240 Dec  1 09:57 fort.8.pe123
-rw-r--r-- 1 felipe users 151519240 Dec  1 09:57 fort.8.pe124
-rw-r--r-- 1 felipe users 151519240 Dec  1 09:57 fort.8.pe125
-rw-r--r-- 1 felipe users 151519240 Dec  1 09:57 fort.8.pe126
-rw-r--r-- 1 felipe users 151519240 Dec  1 09:57 fort.8.pe127
-rw-r--r-- 1 felipe users  84114468 Dec  1 09:47 fort.9
-rw-r--r-- 1 felipe users 220251171 Dec  1 09:47 fort.98
-rw-r--r-- 1 felipe users       594 Dec  1 09:47 INPUT
-rwxr-xr-x 1 felipe users 104622352 Dec  1 09:47 Pproperties
file fort.98 saved as /home/felipe/Wide-Band-Gap/Ga2O3/18_HF/PRISTINE/GaO_PRISTINE_18HF_DOS.f98
file fort.25 saved as /home/felipe/Wide-Band-Gap/Ga2O3/18_HF/PRISTINE/GaO_PRISTINE_18HF_DOS.f25
file DOSS.DAT saved as /home/felipe/Wide-Band-Gap/Ga2O3/18_HF/PRISTINE/GaO_PRISTINE_18HF_DOS_dat.DOSS
removing temporary directories /home/felipe/tmp/tmp_p183389_felipe from each node
