date Sat Nov 29 04:35:13 AM CET 2025
master hostname valdubon
master system Linux valdubon 6.4.0-150600.23.73-default #1 SMP PREEMPT_DYNAMIC Tue Oct 7 08:43:02 UTC 2025 (46f6a23) x86_64 x86_64 x86_64 GNU/Linux
user felipe
output data in /home/felipe/Wide-Band-Gap/Ga2O3/18_HF/PRISTINE/GaO_PRISTINE_18HF_BAND_ERRATUM_DEF.outp
mpirun executable in /home/felipe/openmpi-4.1.5/bin
file machines.LINUX in /home/felipe/CRYSTAL23/utils23
list of nodes in /home/felipe/CRYSTAL23/utils23/nodes.par
creating temporary directories /home/felipe/tmp/tmp_p174658_felipe on each node
copying input file on each node
scf guess from /home/felipe/Wide-Band-Gap/Ga2O3/18_HF/PRISTINE/GaO_PRISTINE_18HF.f9
copying Pproperties executable on each node
properties input data in /home/felipe/Wide-Band-Gap/Ga2O3/18_HF/PRISTINE/GaO_PRISTINE_18HF_BAND_ERRATUM_DEF.d3
NEWK
2 2
1 0
BAND
Ga2O3
15 120 112 979 1381  1 1
-38   82    0   -60   60    0   ! X1 -> Y
-60   60    0     0    0    0   ! Y  -> Γ
  0    0    0     0   60    0   ! Γ  -> N
  0   60    0    38   38    0   ! N  -> X
 38   38    0     0    0    0   ! X  -> Γ
  0    0    0     0   60   60   ! Γ  -> M
  0   60   60   -36   84   60   ! M  -> I
-36   84   60   -60   60   60   ! I  -> L
-60   60   60   -64   64   35   ! L  -> F
-64   64   35   -60   60    0   ! F  -> Y
-60   60    0     0    0    0   ! Y  -> Γ
  0    0    0     0    0   60   ! Γ  -> Z
  0    0   60   -56   56   85   ! Z  -> F1
-56   56   85     0    0   60   ! F1 -> Z
  0    0   60    36   36   60   ! Z  -> I1
END
copying input file on each node
wave function formatted data from /home/felipe/Wide-Band-Gap/Ga2O3/18_HF/PRISTINE/GaO_PRISTINE_18HF.f98
          64 PROCESSORS WORKING

         
 *******************************************************************************
 *                                                                             *
 *                               CRYSTAL23                                     *
 *                      public : 1.0.1 - October 2022                          *
 *                       HTTP://WWW.CRYSTAL.UNITO.IT                           *
 *                                                                             *
 *                              MAIN AUTHORS                                   *
 *                                                                             *
 *  R. DOVESI(1,11), V.R. SAUNDERS(2), C. ROETTI(1,11), R. ORLANDO(1,11),      *
 *  C.M. ZICOVICH-WILSON(1,3), F. PASCALE(4), B. CIVALLERI(1,11),              *
 *  K. DOLL(5), N.M. HARRISON(6), I.J. BUSH(7), Ph. D'ARCO(8),                 *
 *  M. LLUNELL(9), M. CAUSA'(10), Y. NOEL(8), L. MASCHIO(1,11), A. ERBA(1,11)  *
 *  M. RE'RAT(14), S. CASASSA(1,11), B.G. SEARLE(2), J.K. DESMARAIS(1)         *
 *                                                                             *
 *        CONTRIBUTIONS TO THE CODE HAVE ALSO BEEN GIVEN BY                    *
 *                                                                             *
 *  M. FERRABONE(1,11), M. DE LA PIERRE(1,11), M. FERRERO(1,11),               *
 *  J. BAIMA(1,11), E. ALBANESE(1,11), M.F. PEINTINGER(12), R. BAST(13),       *
 *  B. KIRTMAN(15), V. LACIVITA(1,11), R. DEMICHELIS(1,16)                     *
 *  G. BRANDEBURG(17), S. SALUSTRO(1,11), G. SANSONE(1,11)                     *
 *  M.T. RUGGIERO(18), L.E. DAGA(1), L. DONA'(1), A. COSSARD(1)                *
 *                                                                             *
 * (1) THEORETICAL CHEMISTRY GROUP - UNIVERSITA' DI TORINO - TORINO (ITALY)    *
 * (2) SCIENTIFIC COMPUTING DEPARTMENT - STFC DARESBURY (UK)                   *
 * (3) UNIVERSIDAD AUTONOMA DEL ESTADO DE MORELOS - CUERNAVACA (MEXICO)        *
 * (4) UNIVERSITE' DE LORRAINE - NANCY (FRANCE)                                *
 * (5) UNIVERSITAET STUTTGART- STUTTGART (GERMANY)                             *
 * (6) IMPERIAL COLLEGE - LONDON (UK)                                          *
 * (7) SCIENTIFIC COMPUTING DEPARTMENT - STFC RAL (UK)                         *
 * (8) UPMC - SORBONNE UNIVERSITES - PARIS (FRANCE)                            *
 * (9) UNIVERSIDAD DE BARCELONA - BARCELONA (SPAIN)                            *
 *(10) UNIVERSITA' DI NAPOLI "FEDERICO II" - NAPOLI (ITALY)                    *
 *(11) NIS - NANOSTRUCTURED INTERFACES AND SURFACES - TORINO (ITALY)           *
 *(12) MPI FUER CHEMISCHE ENERGIEKONVERSION - MUELHEIM AN DER RUHR (GERMANY)   *
 *(13) UNIVERSITY OF TROMSO - TROMSO (NORWAY)                                  *
 *(14) UNIVERSITE' DE PAU ET DES PAYS DE L'ADOUR - PAU (FRANCE)                *
 *(15) UNIVERSITY OF CALIFORNIA SANTA BARBARA - SANTA BARBARA (USA)            *
 *(16) CURTIN UNIVERSITY - PERTH (AUSTRALIA)                                   *
 *(17) UNIVERSITY COLLEGE LONDON - LONDON (UK)                                 *
 *(18) UNIVERSITY OF VERMONT - BURLINGTON (USA)                                *
 *                                                                             *
 *******************************************************************************
 EEEEEEEEEE STARTING  DATE 29 11 2025 TIME 04:35:17.7
 INFORMATION **** SET_MPP **** PCRYSTAL CALCULATION

 *******************************************************************************
 β-Ga₂O₃  2×2×2 super-cell – HSE06 - spin polarised                     
 CRYSTAL - PROPERTIES - TYPE OF CALCULATION :  RESTRICTED CLOSED SHELL
 *******************************************************************************
 KOHN-SHAM HAMILTONIAN

 (EXCHANGE)[CORRELATION] FUNCTIONAL:(HSE06 SR/GGA)[PERDEW-BURKE-ERNZERHOF]

 RANGE-SEPARATED HYBRID FUNCTIONAL 
 OMEGA (SHORT-RANGE)[LONG-RANGE]:(    0.1100)[    0.0000]

 HYBRID EXCHANGE - PERCENTAGE OF FOCK EXCHANGE    18.0000

 DIRECT LATTICE VECTOR COMPONENTS (ANGSTROM)
        24.57121    0.00000    0.00000
         0.00000    6.12337    0.00000
        -2.79547    0.00000   11.33580

 LATTICE PARAMETERS  (ANGSTROM AND DEGREES) - PRIMITIVE CELL
       A          B          C         ALPHA      BETA     GAMMA        VOLUME
   24.57121    6.12337   11.67540     90.0000  103.8531   90.0000    1705.56932
 *******************************************************************************
 N. OF ATOMS PER CELL       160 COULOMB OVERLAP TOL          (T1) 10**   -7
 NUMBER OF SHELLS          1728 COULOMB PENETRATION TOL      (T2) 10**   -7
 NUMBER OF AO              4352 EXCHANGE OVERLAP TOL         (T3) 10**   -7
 N. OF ELECTRONS PER CELL  2752 EXCHANGE PSEUDO OVP (F(G))   (T4) 10**   -7
 CORE ELECTRONS PER CELL   1984 EXCHANGE PSEUDO OVP (P(G))   (T5) 10**  -14
 N. OF SYMMETRY OPERATORS     1 POLE ORDER IN MONO ZONE                   4
 *******************************************************************************
   ATOM N.AT.  SHELL    X(A)      Y(A)      Z(A)      EXAD       N.ELECT.
 *******************************************************************************
    1   31 GA   15    -4.740    -1.531    -1.160   2.831E-01      29.270
    2   31 GA   15    -3.342    -1.531    -6.828   2.831E-01      29.270
    3   31 GA   15    -4.740     1.531    -1.160   2.831E-01      29.270
    4   31 GA   15    -3.342     1.531    -6.828   2.831E-01      29.270
    5   31 GA   15     7.545    -1.531    -1.160   2.831E-01      29.270
    6   31 GA   15     6.148    -1.531     4.508   2.831E-01      29.270
    7   31 GA   15     7.545     1.531    -1.160   2.831E-01      29.270
    8   31 GA   15     6.148     1.531     4.508   2.831E-01      29.270
    9   31 GA   15     1.403    -0.000    -1.160   2.831E-01      29.270
   10   31 GA   15     0.005     0.000     4.508   2.831E-01      29.270
   11   31 GA   15     1.403     3.062    -1.160   2.831E-01      29.270
   12   31 GA   15     0.005     3.062     4.508   2.831E-01      29.270
   13   31 GA   15   -10.883    -0.000    -1.160   2.831E-01      29.270
   14   31 GA   15    -9.485    -0.000    -6.828   2.831E-01      29.270
   15   31 GA   15   -10.883     3.062    -1.160   2.831E-01      29.270
   16   31 GA   15    -9.485     3.062    -6.828   2.831E-01      29.270
   17   31 GA   15     4.740     1.531     1.160   2.831E-01      29.270
   18   31 GA   15     3.342     1.531     6.828   2.831E-01      29.270
   19   31 GA   15     4.740    -1.531     1.160   2.831E-01      29.270
   20   31 GA   15     3.342    -1.531     6.828   2.831E-01      29.270
   21   31 GA   15    -7.545     1.531     1.160   2.831E-01      29.270
   22   31 GA   15    -6.148     1.531    -4.508   2.831E-01      29.270
   23   31 GA   15    -7.545    -1.531     1.160   2.831E-01      29.270
   24   31 GA   15    -6.148    -1.531    -4.508   2.831E-01      29.270
   25   31 GA   15    -1.403     0.000     1.160   2.831E-01      29.270
   26   31 GA   15    -0.005    -0.000    -4.508   2.831E-01      29.270
   27   31 GA   15    -1.403     3.062     1.160   2.831E-01      29.270
   28   31 GA   15    -0.005     3.062    -4.508   2.831E-01      29.270
   29   31 GA   15    10.883     0.000     1.160   2.831E-01      29.270
   30   31 GA   15     9.485     0.000     6.828   2.831E-01      29.270
   31   31 GA   15    10.883     3.062     1.160   2.831E-01      29.270
   32   31 GA   15     9.485     3.062     6.828   2.831E-01      29.270
   33   31 GA   15    -4.636     0.000     1.784   2.831E-01      29.303
   34   31 GA   15    -3.238    -0.000    -3.883   2.831E-01      29.303
   35   31 GA   15    -4.635     3.062     1.784   2.831E-01      29.303
   36   31 GA   15    -3.238     3.062    -3.884   2.831E-01      29.303
   37   31 GA   15     7.650     0.000     1.784   2.831E-01      29.303
   38   31 GA   15     6.252     0.000     7.452   2.831E-01      29.303
   39   31 GA   15     7.650     3.062     1.784   2.831E-01      29.303
   40   31 GA   15     6.252     3.062     7.452   2.831E-01      29.303
   41   31 GA   15     1.507     1.531     1.784   2.831E-01      29.303
   42   31 GA   15     2.905     1.531    -3.884   2.831E-01      29.303
   43   31 GA   15     1.507    -1.531     1.784   2.831E-01      29.303
   44   31 GA   15     2.905    -1.531    -3.884   2.831E-01      29.303
   45   31 GA   15   -10.778     1.531     1.784   2.831E-01      29.303
   46   31 GA   15    -9.380     1.531    -3.884   2.831E-01      29.303
   47   31 GA   15   -10.778    -1.531     1.784   2.831E-01      29.303
   48   31 GA   15    -9.380    -1.531    -3.884   2.831E-01      29.303
   49   31 GA   15     4.636    -0.000    -1.784   2.831E-01      29.303
   50   31 GA   15     3.238    -0.000     3.883   2.831E-01      29.303
   51   31 GA   15     4.635     3.062    -1.784   2.831E-01      29.303
   52   31 GA   15     3.238     3.062     3.884   2.831E-01      29.303
   53   31 GA   15    -7.650    -0.000    -1.784   2.831E-01      29.303
   54   31 GA   15    -6.252    -0.000    -7.452   2.831E-01      29.303
   55   31 GA   15    -7.650     3.062    -1.784   2.831E-01      29.303
   56   31 GA   15    -6.252     3.062    -7.452   2.831E-01      29.303
   57   31 GA   15    -1.507     1.531    -1.784   2.831E-01      29.303
   58   31 GA   15    -2.905     1.531     3.884   2.831E-01      29.303
   59   31 GA   15    -1.507    -1.531    -1.784   2.831E-01      29.303
   60   31 GA   15    -2.905    -1.531     3.884   2.831E-01      29.303
   61   31 GA   15    10.778     1.531    -1.784   2.831E-01      29.303
   62   31 GA   15     9.380     1.531     3.884   2.831E-01      29.303
   63   31 GA   15    10.778    -1.531    -1.784   2.831E-01      29.303
   64   31 GA   15     9.380    -1.531     3.884   2.831E-01      29.303
   65    8 O     8    -5.730    -0.000    -1.453   4.535E-01       9.089
   66    8 O     8    -7.128    -0.000     4.215   4.535E-01       9.089
   67    8 O     8    -5.730     3.062    -1.452   4.535E-01       9.089
   68    8 O     8    -7.128     3.062     4.215   4.535E-01       9.089
   69    8 O     8     6.555     0.000    -1.453   4.535E-01       9.089
   70    8 O     8     5.158     0.000     4.215   4.535E-01       9.089
   71    8 O     8     6.555     3.062    -1.453   4.535E-01       9.089
   72    8 O     8     5.158     3.062     4.215   4.535E-01       9.089
   73    8 O     8     0.413    -1.531    -1.453   4.535E-01       9.089
   74    8 O     8    -0.985    -1.531     4.215   4.535E-01       9.089
   75    8 O     8     0.413     1.531    -1.453   4.535E-01       9.089
   76    8 O     8    -0.985     1.531     4.215   4.535E-01       9.089
   77    8 O     8   -11.873    -1.531    -1.453   4.535E-01       9.089
   78    8 O     8    11.300    -1.531     4.215   4.535E-01       9.089
   79    8 O     8   -11.873     1.531    -1.453   4.535E-01       9.089
   80    8 O     8    11.300     1.531     4.215   4.535E-01       9.089
   81    8 O     8     5.730     0.000     1.453   4.535E-01       9.089
   82    8 O     8     7.128     0.000    -4.215   4.535E-01       9.089
   83    8 O     8     5.730     3.062     1.452   4.535E-01       9.089
   84    8 O     8     7.128     3.062    -4.215   4.535E-01       9.089
   85    8 O     8    -6.555    -0.000     1.453   4.535E-01       9.089
   86    8 O     8    -5.158    -0.000    -4.215   4.535E-01       9.089
   87    8 O     8    -6.555     3.062     1.453   4.535E-01       9.089
   88    8 O     8    -5.158     3.062    -4.215   4.535E-01       9.089
   89    8 O     8    -0.413     1.531     1.453   4.535E-01       9.089
   90    8 O     8     0.985     1.531    -4.215   4.535E-01       9.089
   91    8 O     8    -0.413    -1.531     1.453   4.535E-01       9.089
   92    8 O     8     0.985    -1.531    -4.215   4.535E-01       9.089
   93    8 O     8    11.873     1.531     1.453   4.535E-01       9.089
   94    8 O     8   -11.300     1.531    -4.215   4.535E-01       9.089
   95    8 O     8    11.873    -1.531     1.453   4.535E-01       9.089
   96    8 O     8   -11.300    -1.531    -4.215   4.535E-01       9.089
   97    8 O     8    -4.278     1.531     0.624   4.535E-01       9.110
   98    8 O     8    -2.880     1.531    -5.044   4.535E-01       9.110
   99    8 O     8    -4.278    -1.531     0.624   4.535E-01       9.110
  100    8 O     8    -2.880    -1.531    -5.044   4.535E-01       9.110
  101    8 O     8     8.008     1.531     0.624   4.535E-01       9.110
  102    8 O     8     6.610     1.531     6.292   4.535E-01       9.110
  103    8 O     8     8.008    -1.531     0.624   4.535E-01       9.110
  104    8 O     8     6.610    -1.531     6.292   4.535E-01       9.110
  105    8 O     8     1.865     0.000     0.624   4.535E-01       9.110
  106    8 O     8     3.263    -0.000    -5.044   4.535E-01       9.110
  107    8 O     8     1.865     3.062     0.624   4.535E-01       9.110
  108    8 O     8     3.263     3.062    -5.044   4.535E-01       9.110
  109    8 O     8   -10.420    -0.000     0.624   4.535E-01       9.110
  110    8 O     8    -9.023    -0.000    -5.044   4.535E-01       9.110
  111    8 O     8   -10.420     3.062     0.624   4.535E-01       9.110
  112    8 O     8    -9.023     3.062    -5.044   4.535E-01       9.110
  113    8 O     8     4.278     1.531    -0.624   4.535E-01       9.110
  114    8 O     8     2.880     1.531     5.044   4.535E-01       9.110
  115    8 O     8     4.278    -1.531    -0.624   4.535E-01       9.110
  116    8 O     8     2.880    -1.531     5.044   4.535E-01       9.110
  117    8 O     8    -8.008     1.531    -0.624   4.535E-01       9.110
  118    8 O     8    -6.610     1.531    -6.292   4.535E-01       9.110
  119    8 O     8    -8.008    -1.531    -0.624   4.535E-01       9.110
  120    8 O     8    -6.610    -1.531    -6.292   4.535E-01       9.110
  121    8 O     8    -1.865    -0.000    -0.624   4.535E-01       9.110
  122    8 O     8    -3.263     0.000     5.044   4.535E-01       9.110
  123    8 O     8    -1.865     3.062    -0.624   4.535E-01       9.110
  124    8 O     8    -3.263     3.062     5.044   4.535E-01       9.110
  125    8 O     8    10.420     0.000    -0.624   4.535E-01       9.110
  126    8 O     8     9.023     0.000     5.044   4.535E-01       9.110
  127    8 O     8    10.420     3.062    -0.624   4.535E-01       9.110
  128    8 O     8     9.023     3.062     5.044   4.535E-01       9.110
  129    8 O     8    -3.401     1.531    -2.478   4.535E-01       9.228
  130    8 O     8    -4.799     1.531     3.189   4.535E-01       9.228
  131    8 O     8    -3.401    -1.531    -2.478   4.535E-01       9.228
  132    8 O     8    -4.799    -1.531     3.189   4.535E-01       9.228
  133    8 O     8     8.885     1.531    -2.479   4.535E-01       9.228
  134    8 O     8     7.487     1.531     3.189   4.535E-01       9.228
  135    8 O     8     8.885    -1.531    -2.479   4.535E-01       9.228
  136    8 O     8     7.487    -1.531     3.189   4.535E-01       9.228
  137    8 O     8     2.742    -0.000    -2.479   4.535E-01       9.228
  138    8 O     8     1.344     0.000     3.189   4.535E-01       9.228
  139    8 O     8     2.742     3.062    -2.479   4.535E-01       9.228
  140    8 O     8     1.344     3.062     3.189   4.535E-01       9.228
  141    8 O     8    -9.544    -0.000    -2.479   4.535E-01       9.228
  142    8 O     8   -10.942    -0.000     3.189   4.535E-01       9.228
  143    8 O     8    -9.544     3.062    -2.479   4.535E-01       9.228
  144    8 O     8   -10.942     3.062     3.189   4.535E-01       9.228
  145    8 O     8     3.401     1.531     2.478   4.535E-01       9.228
  146    8 O     8     4.799     1.531    -3.189   4.535E-01       9.228
  147    8 O     8     3.401    -1.531     2.478   4.535E-01       9.228
  148    8 O     8     4.799    -1.531    -3.189   4.535E-01       9.228
  149    8 O     8    -8.885     1.531     2.479   4.535E-01       9.228
  150    8 O     8    -7.487     1.531    -3.189   4.535E-01       9.228
  151    8 O     8    -8.885    -1.531     2.479   4.535E-01       9.228
  152    8 O     8    -7.487    -1.531    -3.189   4.535E-01       9.228
  153    8 O     8    -2.742     0.000     2.479   4.535E-01       9.228
  154    8 O     8    -1.344    -0.000    -3.189   4.535E-01       9.228
  155    8 O     8    -2.742     3.062     2.479   4.535E-01       9.228
  156    8 O     8    -1.344     3.062    -3.189   4.535E-01       9.228
  157    8 O     8     9.544     0.000     2.479   4.535E-01       9.228
  158    8 O     8    10.942     0.000    -3.189   4.535E-01       9.228
  159    8 O     8     9.544     3.062     2.479   4.535E-01       9.228
  160    8 O     8    10.942     3.062    -3.189   4.535E-01       9.228
 *******************************************************************************
 DE(K)                   0.000E+00  ENERGY LEVEL SHIFTING        0.00000
 TOTAL ENERGY -1.3040031449707E+05  CONVERGENCE ON ENER       -1.129E-07
 KIN. ENERGY   1.3022416492483E+05  VIR. COEFF.           1.01751665E+00
 N. OF SCF CYCLES               15  FERMI ENERGY              -0.205E+00
 WEIGHT OF F(I) IN F(I+1)      30
 SHRINK. FACT.(MONKH.)     2  2  2  SHRINKING FACTOR(GILAT NET)        2
 NUMBER OF K POINTS IN THE IBZ   8  CELL VOLUME (A.U.)      11509.752473
 *******************************************************************************

 GCALCO - MAX INDICES DIRECT LATTICE VECTOR     7    29    15
 NO.OF VECTORS CREATED 6999 STARS 1818 RMAX   268.33424 BOHR
 TTTTTTTTTTTTTTTTTTTTTTTTTTTTTT gordsh1     TELAPSE        1.62 TCPU        1.26

 MATRIX SIZE: P(G)10888872, F(G) 1872768, P(G) IRR 5458132, F(G) IRR 1879072
 MAX G-VECTOR INDEX FOR 1- AND 2-ELECTRON INTEGRALS  73


 CAPPA:IS1  2;IS2  2;IS3  2; K PTS MONK NET   8; SYMMOPS:K SPACE   2;G SPACE   1


 CAPPA:IS1  2;IS2  2;IS3  2; K PTS MONK NET   8; SYMMOPS:K SPACE   2;G SPACE   1

 *******************************************************************************
 RESTART WITH NEW K POINTS NET
 *******************************************************************************
 POINTS IN THE IBZ                   8 POINTS(GILAT NET)                 8
 SHRINK FACTORS(MONK.)         2  2  2 SHRINK FACTOR(GILAT)              2
 *******************************************************************************
 *** K POINTS COORDINATES (OBLIQUE COORDINATES IN UNITS OF IS =  2)
   1-R(  0  0  0)   2-R(  1  0  0)   3-R(  0  1  0)   4-R(  1  1  0)
   5-R(  0  0  1)   6-R(  1  0  1)   7-R(  0  1  1)   8-R(  1  1  1)

 FERMI ENERGY AND DENSITY MATRIX CALCULATION ON COMPUTED EIGENVECTORS
 DENSITY MATRIX AT SCF CYCLE ( 15+1)

 INSULATING STATE
 TOP OF VALENCE BANDS -    BAND   1376; K    1; EIG -2.0494251E-01 AU
 BOTTOM OF VIRTUAL BANDS - BAND   1377; K    1; EIG -6.1018469E-02 AU
 DIRECT ENERGY BAND GAP:   3.9164 eV

 CORE DENSITY MATRIX CALCULATION
 TTTTTTTTTTTTTTTTTTTTTTTTTTTTTT NEWK        TELAPSE      663.13 TCPU      662.36


 *******************************************************************************
 *                                                                             *
 *  BAND STRUCTURE                                                             *
 *  Ga2O3                                                                      *
 *  FROM BAND 979 TO BAND1381                                                  *
 *  TOTAL OF 112 K-POINTS ALONG THE PATH                                       *
 *                                                                             *
 *******************************************************************************

 LINE  1 (-0.32 0.68 0.00:-0.50 0.50 0.00) IN TERMS OF PRIMITIVE LATTICE VECTORS
   5 POINTS - SHRINKING_FACTOR 480
 CARTESIAN COORD. (-0.043 0.371-0.011):(-0.068 0.271-0.017) STEP  0.0257


   1(***/480328/480  0/480)
                -7.397E-01 -7.396E-01 -7.396E-01 -7.395E-01 -7.395E-01 -7.395E-01 -7.394E-01 -7.393E-01 -7.393E-01 -7.393E-01
                -7.393E-01 -7.393E-01 -7.393E-01 -7.393E-01 -7.392E-01 -7.392E-01 -7.391E-01 -7.391E-01 -7.390E-01 -7.390E-01
                -7.390E-01 -7.389E-01 -7.389E-01 -7.388E-01 -7.386E-01 -7.385E-01 -7.383E-01 -7.382E-01 -7.381E-01 -7.380E-01
                -7.378E-01 -7.378E-01 -7.377E-01 -7.374E-01 -7.373E-01 -7.371E-01 -7.371E-01 -7.369E-01 -7.369E-01 -7.369E-01
                -7.357E-01 -7.354E-01 -7.352E-01 -7.351E-01 -7.351E-01 -7.349E-01 -7.335E-01 -7.327E-01 -7.324E-01 -7.318E-01
                -7.317E-01 -7.312E-01 -7.305E-01 -7.296E-01 -7.295E-01 -7.294E-01 -7.294E-01 -7.293E-01 -7.289E-01 -7.272E-01
                -7.270E-01 -7.264E-01 -7.264E-01 -7.262E-01 -7.260E-01 -7.257E-01 -7.253E-01 -7.251E-01 -7.248E-01 -7.236E-01
                -7.233E-01 -7.229E-01 -7.229E-01 -7.228E-01 -7.218E-01 -7.209E-01 -7.204E-01 -7.202E-01 -7.201E-01 -7.196E-01
                -7.196E-01 -7.181E-01 -7.155E-01 -7.143E-01 -7.139E-01 -7.136E-01 -7.134E-01 -7.129E-01 -7.124E-01 -7.123E-01
                -7.122E-01 -7.118E-01 -7.114E-01 -7.103E-01 -7.101E-01 -7.100E-01 -7.093E-01 -7.086E-01 -7.085E-01 -7.085E-01
                -7.081E-01 -7.081E-01 -7.080E-01 -7.079E-01 -7.062E-01 -7.059E-01 -7.055E-01 -7.048E-01 -7.047E-01 -7.023E-01
                -4.597E-01 -4.593E-01 -4.583E-01 -4.579E-01 -4.541E-01 -4.521E-01 -4.461E-01 -4.435E-01 -4.425E-01 -4.404E-01
                -4.372E-01 -4.358E-01 -4.339E-01 -4.339E-01 -4.336E-01 -4.331E-01 -4.321E-01 -4.320E-01 -4.320E-01 -4.303E-01
                -4.300E-01 -4.293E-01 -4.284E-01 -4.276E-01 -4.276E-01 -4.259E-01 -4.243E-01 -4.228E-01 -4.218E-01 -4.217E-01
                -4.216E-01 -4.180E-01 -4.167E-01 -4.154E-01 -4.123E-01 -4.090E-01 -4.080E-01 -4.059E-01 -4.036E-01 -4.034E-01
                -4.026E-01 -4.026E-01 -4.018E-01 -4.017E-01 -4.007E-01 -3.997E-01 -3.979E-01 -3.973E-01 -3.965E-01 -3.963E-01
                -3.948E-01 -3.931E-01 -3.925E-01 -3.866E-01 -3.862E-01 -3.861E-01 -3.861E-01 -3.843E-01 -3.803E-01 -3.786E-01
                -3.749E-01 -3.747E-01 -3.742E-01 -3.740E-01 -3.730E-01 -3.707E-01 -3.703E-01 -3.682E-01 -3.678E-01 -3.675E-01
                -3.661E-01 -3.654E-01 -3.651E-01 -3.646E-01 -3.592E-01 -3.573E-01 -3.566E-01 -3.564E-01 -3.549E-01 -3.525E-01
                -3.523E-01 -3.500E-01 -3.484E-01 -3.475E-01 -3.468E-01 -3.462E-01 -3.462E-01 -3.458E-01 -3.454E-01 -3.451E-01
                -3.450E-01 -3.448E-01 -3.444E-01 -3.441E-01 -3.429E-01 -3.426E-01 -3.420E-01 -3.408E-01 -3.397E-01 -3.384E-01
                -3.381E-01 -3.374E-01 -3.372E-01 -3.371E-01 -3.370E-01 -3.353E-01 -3.333E-01 -3.330E-01 -3.327E-01 -3.309E-01
                -3.306E-01 -3.306E-01 -3.261E-01 -3.260E-01 -3.258E-01 -3.245E-01 -3.243E-01 -3.216E-01 -3.212E-01 -3.198E-01
                -3.185E-01 -3.176E-01 -3.171E-01 -3.164E-01 -3.144E-01 -3.144E-01 -3.137E-01 -3.119E-01 -3.115E-01 -3.102E-01
                -3.097E-01 -3.090E-01 -3.088E-01 -3.084E-01 -3.072E-01 -3.070E-01 -3.067E-01 -3.066E-01 -3.059E-01 -3.054E-01
                -3.049E-01 -3.045E-01 -3.041E-01 -3.036E-01 -3.026E-01 -3.017E-01 -3.016E-01 -3.005E-01 -3.001E-01 -2.981E-01
                -2.975E-01 -2.959E-01 -2.953E-01 -2.945E-01 -2.945E-01 -2.938E-01 -2.926E-01 -2.923E-01 -2.909E-01 -2.906E-01
                -2.895E-01 -2.892E-01 -2.884E-01 -2.884E-01 -2.879E-01 -2.871E-01 -2.869E-01 -2.860E-01 -2.841E-01 -2.839E-01
                -2.835E-01 -2.821E-01 -2.810E-01 -2.810E-01 -2.810E-01 -2.807E-01 -2.807E-01 -2.798E-01 -2.789E-01 -2.750E-01
                -2.748E-01 -2.745E-01 -2.725E-01 -2.721E-01 -2.677E-01 -2.672E-01 -2.665E-01 -2.660E-01 -2.649E-01 -2.647E-01
                -2.646E-01 -2.630E-01 -2.629E-01 -2.625E-01 -2.617E-01 -2.597E-01 -2.590E-01 -2.587E-01 -2.586E-01 -2.572E-01
                -2.565E-01 -2.564E-01 -2.564E-01 -2.561E-01 -2.544E-01 -2.536E-01 -2.531E-01 -2.527E-01 -2.527E-01 -2.521E-01
                -2.514E-01 -2.511E-01 -2.506E-01 -2.504E-01 -2.499E-01 -2.493E-01 -2.490E-01 -2.482E-01 -2.475E-01 -2.469E-01
                -2.457E-01 -2.453E-01 -2.451E-01 -2.445E-01 -2.444E-01 -2.428E-01 -2.427E-01 -2.419E-01 -2.418E-01 -2.417E-01
                -2.414E-01 -2.413E-01 -2.412E-01 -2.406E-01 -2.399E-01 -2.399E-01 -2.393E-01 -2.389E-01 -2.386E-01 -2.381E-01
                -2.379E-01 -2.376E-01 -2.374E-01 -2.373E-01 -2.359E-01 -2.359E-01 -2.351E-01 -2.337E-01 -2.333E-01 -2.333E-01
                -2.322E-01 -2.317E-01 -2.314E-01 -2.310E-01 -2.308E-01 -2.305E-01 -2.295E-01 -2.291E-01 -2.288E-01 -2.286E-01
                -2.281E-01 -2.269E-01 -2.269E-01 -2.265E-01 -2.255E-01 -2.232E-01 -2.230E-01 -2.230E-01 -2.218E-01 -2.209E-01
                -2.204E-01 -2.204E-01 -2.203E-01 -2.201E-01 -2.200E-01 -2.189E-01 -2.157E-01 -2.118E-01 -2.100E-01 -2.098E-01
                -2.097E-01 -2.093E-01 -2.092E-01 -2.091E-01 -2.072E-01 -2.072E-01 -2.065E-01 -2.059E-01 -2.115E-02 -1.495E-02
                 4.661E-03  1.936E-02  4.146E-02

   2(***/480306/480  0/480)
                -7.398E-01 -7.397E-01 -7.396E-01 -7.395E-01 -7.395E-01 -7.395E-01 -7.394E-01 -7.394E-01 -7.394E-01 -7.394E-01
                -7.393E-01 -7.393E-01 -7.393E-01 -7.392E-01 -7.391E-01 -7.391E-01 -7.391E-01 -7.391E-01 -7.390E-01 -7.390E-01
                -7.390E-01 -7.390E-01 -7.389E-01 -7.389E-01 -7.386E-01 -7.385E-01 -7.384E-01 -7.383E-01 -7.381E-01 -7.381E-01
                -7.379E-01 -7.378E-01 -7.377E-01 -7.376E-01 -7.375E-01 -7.373E-01 -7.372E-01 -7.371E-01 -7.370E-01 -7.368E-01
                -7.362E-01 -7.358E-01 -7.357E-01 -7.356E-01 -7.346E-01 -7.345E-01 -7.336E-01 -7.335E-01 -7.331E-01 -7.322E-01
                -7.322E-01 -7.311E-01 -7.299E-01 -7.297E-01 -7.288E-01 -7.284E-01 -7.283E-01 -7.279E-01 -7.276E-01 -7.275E-01
                -7.262E-01 -7.259E-01 -7.254E-01 -7.253E-01 -7.251E-01 -7.250E-01 -7.246E-01 -7.244E-01 -7.242E-01 -7.240E-01
                -7.232E-01 -7.225E-01 -7.219E-01 -7.218E-01 -7.214E-01 -7.212E-01 -7.210E-01 -7.207E-01 -7.206E-01 -7.206E-01
                -7.195E-01 -7.187E-01 -7.152E-01 -7.150E-01 -7.148E-01 -7.145E-01 -7.145E-01 -7.140E-01 -7.137E-01 -7.134E-01
                -7.119E-01 -7.118E-01 -7.114E-01 -7.101E-01 -7.099E-01 -7.098E-01 -7.093E-01 -7.091E-01 -7.090E-01 -7.089E-01
                -7.089E-01 -7.088E-01 -7.087E-01 -7.082E-01 -7.060E-01 -7.059E-01 -7.053E-01 -7.049E-01 -7.047E-01 -7.033E-01
                -4.584E-01 -4.580E-01 -4.564E-01 -4.560E-01 -4.536E-01 -4.521E-01 -4.457E-01 -4.430E-01 -4.395E-01 -4.372E-01
                -4.366E-01 -4.352E-01 -4.332E-01 -4.320E-01 -4.316E-01 -4.315E-01 -4.313E-01 -4.303E-01 -4.298E-01 -4.294E-01
                -4.282E-01 -4.278E-01 -4.273E-01 -4.261E-01 -4.244E-01 -4.243E-01 -4.216E-01 -4.215E-01 -4.203E-01 -4.189E-01
                -4.187E-01 -4.182E-01 -4.155E-01 -4.147E-01 -4.087E-01 -4.081E-01 -4.080E-01 -4.063E-01 -4.057E-01 -4.039E-01
                -4.013E-01 -3.991E-01 -3.976E-01 -3.972E-01 -3.967E-01 -3.957E-01 -3.953E-01 -3.949E-01 -3.946E-01 -3.927E-01
                -3.913E-01 -3.909E-01 -3.904E-01 -3.893E-01 -3.838E-01 -3.838E-01 -3.819E-01 -3.819E-01 -3.815E-01 -3.800E-01
                -3.743E-01 -3.729E-01 -3.729E-01 -3.726E-01 -3.726E-01 -3.712E-01 -3.710E-01 -3.684E-01 -3.672E-01 -3.667E-01
                -3.663E-01 -3.657E-01 -3.640E-01 -3.604E-01 -3.598E-01 -3.586E-01 -3.544E-01 -3.541E-01 -3.535E-01 -3.534E-01
                -3.530E-01 -3.529E-01 -3.524E-01 -3.514E-01 -3.504E-01 -3.494E-01 -3.490E-01 -3.489E-01 -3.478E-01 -3.477E-01
                -3.472E-01 -3.454E-01 -3.453E-01 -3.448E-01 -3.434E-01 -3.422E-01 -3.418E-01 -3.410E-01 -3.404E-01 -3.399E-01
                -3.398E-01 -3.397E-01 -3.393E-01 -3.359E-01 -3.355E-01 -3.342E-01 -3.341E-01 -3.336E-01 -3.336E-01 -3.326E-01
                -3.325E-01 -3.323E-01 -3.318E-01 -3.285E-01 -3.263E-01 -3.261E-01 -3.236E-01 -3.232E-01 -3.221E-01 -3.211E-01
                -3.210E-01 -3.190E-01 -3.190E-01 -3.160E-01 -3.157E-01 -3.154E-01 -3.150E-01 -3.136E-01 -3.136E-01 -3.123E-01
                -3.122E-01 -3.113E-01 -3.111E-01 -3.102E-01 -3.081E-01 -3.078E-01 -3.076E-01 -3.066E-01 -3.050E-01 -3.048E-01
                -3.047E-01 -3.044E-01 -3.043E-01 -3.041E-01 -3.034E-01 -3.033E-01 -3.027E-01 -3.027E-01 -3.013E-01 -3.004E-01
                -2.984E-01 -2.968E-01 -2.963E-01 -2.963E-01 -2.961E-01 -2.944E-01 -2.943E-01 -2.937E-01 -2.930E-01 -2.926E-01
                -2.922E-01 -2.896E-01 -2.893E-01 -2.883E-01 -2.878E-01 -2.862E-01 -2.862E-01 -2.861E-01 -2.859E-01 -2.858E-01
                -2.831E-01 -2.828E-01 -2.815E-01 -2.813E-01 -2.809E-01 -2.807E-01 -2.804E-01 -2.799E-01 -2.797E-01 -2.780E-01
                -2.769E-01 -2.762E-01 -2.762E-01 -2.746E-01 -2.711E-01 -2.701E-01 -2.698E-01 -2.694E-01 -2.680E-01 -2.675E-01
                -2.671E-01 -2.668E-01 -2.657E-01 -2.627E-01 -2.605E-01 -2.601E-01 -2.600E-01 -2.597E-01 -2.595E-01 -2.587E-01
                -2.585E-01 -2.583E-01 -2.569E-01 -2.569E-01 -2.548E-01 -2.533E-01 -2.527E-01 -2.526E-01 -2.526E-01 -2.521E-01
                -2.507E-01 -2.507E-01 -2.502E-01 -2.502E-01 -2.497E-01 -2.488E-01 -2.482E-01 -2.478E-01 -2.473E-01 -2.466E-01
                -2.465E-01 -2.458E-01 -2.445E-01 -2.437E-01 -2.431E-01 -2.431E-01 -2.431E-01 -2.429E-01 -2.425E-01 -2.421E-01
                -2.419E-01 -2.417E-01 -2.412E-01 -2.404E-01 -2.402E-01 -2.402E-01 -2.400E-01 -2.393E-01 -2.382E-01 -2.379E-01
                -2.377E-01 -2.371E-01 -2.370E-01 -2.368E-01 -2.365E-01 -2.354E-01 -2.352E-01 -2.340E-01 -2.336E-01 -2.336E-01
                -2.325E-01 -2.315E-01 -2.312E-01 -2.310E-01 -2.304E-01 -2.302E-01 -2.302E-01 -2.296E-01 -2.284E-01 -2.284E-01
                -2.282E-01 -2.281E-01 -2.279E-01 -2.263E-01 -2.257E-01 -2.235E-01 -2.225E-01 -2.221E-01 -2.214E-01 -2.206E-01
                -2.205E-01 -2.202E-01 -2.199E-01 -2.194E-01 -2.177E-01 -2.174E-01 -2.155E-01 -2.128E-01 -2.098E-01 -2.096E-01
                -2.094E-01 -2.092E-01 -2.089E-01 -2.087E-01 -2.078E-01 -2.072E-01 -2.068E-01 -2.067E-01 -1.129E-02 -7.330E-03
                 1.227E-02  2.226E-02  4.637E-02

   3(***/480284/480  0/480)
                -7.399E-01 -7.399E-01 -7.396E-01 -7.396E-01 -7.396E-01 -7.395E-01 -7.395E-01 -7.395E-01 -7.394E-01 -7.393E-01
                -7.393E-01 -7.393E-01 -7.391E-01 -7.391E-01 -7.391E-01 -7.391E-01 -7.390E-01 -7.390E-01 -7.390E-01 -7.390E-01
                -7.390E-01 -7.389E-01 -7.389E-01 -7.389E-01 -7.387E-01 -7.386E-01 -7.383E-01 -7.382E-01 -7.380E-01 -7.380E-01
                -7.379E-01 -7.378E-01 -7.378E-01 -7.378E-01 -7.377E-01 -7.376E-01 -7.376E-01 -7.375E-01 -7.369E-01 -7.367E-01
                -7.365E-01 -7.365E-01 -7.364E-01 -7.362E-01 -7.351E-01 -7.350E-01 -7.337E-01 -7.336E-01 -7.328E-01 -7.320E-01
                -7.320E-01 -7.312E-01 -7.306E-01 -7.289E-01 -7.288E-01 -7.282E-01 -7.274E-01 -7.272E-01 -7.264E-01 -7.261E-01
                -7.258E-01 -7.251E-01 -7.249E-01 -7.246E-01 -7.242E-01 -7.238E-01 -7.237E-01 -7.237E-01 -7.235E-01 -7.234E-01
                -7.231E-01 -7.229E-01 -7.219E-01 -7.216E-01 -7.214E-01 -7.211E-01 -7.210E-01 -7.205E-01 -7.201E-01 -7.198E-01
                -7.195E-01 -7.192E-01 -7.172E-01 -7.170E-01 -7.159E-01 -7.159E-01 -7.157E-01 -7.156E-01 -7.136E-01 -7.136E-01
                -7.128E-01 -7.122E-01 -7.105E-01 -7.101E-01 -7.099E-01 -7.099E-01 -7.097E-01 -7.096E-01 -7.090E-01 -7.089E-01
                -7.089E-01 -7.088E-01 -7.088E-01 -7.085E-01 -7.059E-01 -7.058E-01 -7.054E-01 -7.052E-01 -7.049E-01 -7.044E-01
                -4.570E-01 -4.567E-01 -4.543E-01 -4.539E-01 -4.535E-01 -4.526E-01 -4.464E-01 -4.449E-01 -4.352E-01 -4.351E-01
                -4.344E-01 -4.338E-01 -4.328E-01 -4.320E-01 -4.303E-01 -4.294E-01 -4.290E-01 -4.290E-01 -4.289E-01 -4.281E-01
                -4.274E-01 -4.272E-01 -4.266E-01 -4.261E-01 -4.217E-01 -4.217E-01 -4.200E-01 -4.194E-01 -4.190E-01 -4.177E-01
                -4.158E-01 -4.157E-01 -4.134E-01 -4.128E-01 -4.128E-01 -4.115E-01 -4.083E-01 -4.056E-01 -4.047E-01 -4.023E-01
                -3.977E-01 -3.974E-01 -3.967E-01 -3.945E-01 -3.937E-01 -3.934E-01 -3.934E-01 -3.932E-01 -3.913E-01 -3.894E-01
                -3.880E-01 -3.866E-01 -3.848E-01 -3.840E-01 -3.838E-01 -3.820E-01 -3.814E-01 -3.813E-01 -3.787E-01 -3.782E-01
                -3.768E-01 -3.759E-01 -3.727E-01 -3.727E-01 -3.726E-01 -3.717E-01 -3.712E-01 -3.693E-01 -3.675E-01 -3.664E-01
                -3.659E-01 -3.654E-01 -3.649E-01 -3.636E-01 -3.592E-01 -3.591E-01 -3.564E-01 -3.553E-01 -3.552E-01 -3.550E-01
                -3.535E-01 -3.534E-01 -3.530E-01 -3.526E-01 -3.525E-01 -3.525E-01 -3.523E-01 -3.501E-01 -3.495E-01 -3.492E-01
                -3.483E-01 -3.477E-01 -3.446E-01 -3.445E-01 -3.433E-01 -3.421E-01 -3.409E-01 -3.403E-01 -3.400E-01 -3.394E-01
                -3.388E-01 -3.377E-01 -3.375E-01 -3.369E-01 -3.367E-01 -3.362E-01 -3.348E-01 -3.341E-01 -3.338E-01 -3.322E-01
                -3.320E-01 -3.320E-01 -3.318E-01 -3.316E-01 -3.283E-01 -3.276E-01 -3.265E-01 -3.264E-01 -3.263E-01 -3.239E-01
                -3.215E-01 -3.213E-01 -3.202E-01 -3.196E-01 -3.191E-01 -3.183E-01 -3.165E-01 -3.158E-01 -3.156E-01 -3.140E-01
                -3.134E-01 -3.117E-01 -3.113E-01 -3.080E-01 -3.078E-01 -3.073E-01 -3.071E-01 -3.068E-01 -3.064E-01 -3.061E-01
                -3.057E-01 -3.056E-01 -3.045E-01 -3.037E-01 -3.035E-01 -3.035E-01 -3.023E-01 -3.017E-01 -3.009E-01 -3.005E-01
                -2.997E-01 -2.988E-01 -2.986E-01 -2.963E-01 -2.959E-01 -2.953E-01 -2.949E-01 -2.945E-01 -2.933E-01 -2.927E-01
                -2.920E-01 -2.914E-01 -2.902E-01 -2.891E-01 -2.887E-01 -2.882E-01 -2.873E-01 -2.863E-01 -2.860E-01 -2.857E-01
                -2.851E-01 -2.827E-01 -2.821E-01 -2.820E-01 -2.814E-01 -2.808E-01 -2.806E-01 -2.799E-01 -2.791E-01 -2.785E-01
                -2.777E-01 -2.772E-01 -2.767E-01 -2.765E-01 -2.762E-01 -2.757E-01 -2.743E-01 -2.742E-01 -2.721E-01 -2.713E-01
                -2.687E-01 -2.676E-01 -2.642E-01 -2.619E-01 -2.618E-01 -2.614E-01 -2.614E-01 -2.612E-01 -2.594E-01 -2.594E-01
                -2.586E-01 -2.584E-01 -2.572E-01 -2.558E-01 -2.548E-01 -2.546E-01 -2.543E-01 -2.542E-01 -2.540E-01 -2.520E-01
                -2.503E-01 -2.496E-01 -2.490E-01 -2.483E-01 -2.483E-01 -2.479E-01 -2.478E-01 -2.476E-01 -2.471E-01 -2.470E-01
                -2.462E-01 -2.455E-01 -2.441E-01 -2.440E-01 -2.440E-01 -2.436E-01 -2.429E-01 -2.425E-01 -2.421E-01 -2.420E-01
                -2.417E-01 -2.417E-01 -2.410E-01 -2.409E-01 -2.405E-01 -2.399E-01 -2.396E-01 -2.392E-01 -2.384E-01 -2.384E-01
                -2.383E-01 -2.380E-01 -2.362E-01 -2.358E-01 -2.357E-01 -2.350E-01 -2.341E-01 -2.340E-01 -2.337E-01 -2.335E-01
                -2.326E-01 -2.320E-01 -2.315E-01 -2.312E-01 -2.311E-01 -2.310E-01 -2.303E-01 -2.296E-01 -2.294E-01 -2.288E-01
                -2.285E-01 -2.276E-01 -2.275E-01 -2.259E-01 -2.259E-01 -2.242E-01 -2.226E-01 -2.216E-01 -2.213E-01 -2.212E-01
                -2.207E-01 -2.202E-01 -2.191E-01 -2.181E-01 -2.155E-01 -2.154E-01 -2.151E-01 -2.138E-01 -2.096E-01 -2.095E-01
                -2.093E-01 -2.092E-01 -2.086E-01 -2.084E-01 -2.083E-01 -2.080E-01 -2.073E-01 -2.070E-01 -1.070E-03  1.128E-03
                 2.002E-02  2.595E-02  4.031E-02

   4(***/480262/480  0/480)
                -7.399E-01 -7.399E-01 -7.397E-01 -7.397E-01 -7.396E-01 -7.396E-01 -7.396E-01 -7.396E-01 -7.395E-01 -7.394E-01
                -7.392E-01 -7.392E-01 -7.391E-01 -7.391E-01 -7.391E-01 -7.391E-01 -7.390E-01 -7.390E-01 -7.389E-01 -7.388E-01
                -7.388E-01 -7.388E-01 -7.387E-01 -7.387E-01 -7.387E-01 -7.387E-01 -7.381E-01 -7.381E-01 -7.381E-01 -7.381E-01
                -7.380E-01 -7.380E-01 -7.379E-01 -7.378E-01 -7.378E-01 -7.377E-01 -7.377E-01 -7.377E-01 -7.372E-01 -7.371E-01
                -7.367E-01 -7.367E-01 -7.367E-01 -7.366E-01 -7.362E-01 -7.361E-01 -7.329E-01 -7.326E-01 -7.325E-01 -7.320E-01
                -7.318E-01 -7.316E-01 -7.311E-01 -7.302E-01 -7.279E-01 -7.275E-01 -7.263E-01 -7.263E-01 -7.263E-01 -7.260E-01
                -7.250E-01 -7.249E-01 -7.245E-01 -7.243E-01 -7.231E-01 -7.230E-01 -7.229E-01 -7.228E-01 -7.228E-01 -7.228E-01
                -7.227E-01 -7.223E-01 -7.217E-01 -7.216E-01 -7.215E-01 -7.214E-01 -7.213E-01 -7.205E-01 -7.193E-01 -7.192E-01
                -7.191E-01 -7.187E-01 -7.182E-01 -7.180E-01 -7.178E-01 -7.177E-01 -7.170E-01 -7.167E-01 -7.148E-01 -7.145E-01
                -7.127E-01 -7.121E-01 -7.110E-01 -7.108E-01 -7.098E-01 -7.096E-01 -7.095E-01 -7.094E-01 -7.091E-01 -7.091E-01
                -7.090E-01 -7.089E-01 -7.080E-01 -7.078E-01 -7.060E-01 -7.057E-01 -7.056E-01 -7.056E-01 -7.052E-01 -7.051E-01
                -4.557E-01 -4.555E-01 -4.538E-01 -4.534E-01 -4.521E-01 -4.518E-01 -4.478E-01 -4.473E-01 -4.339E-01 -4.335E-01
                -4.327E-01 -4.323E-01 -4.311E-01 -4.308E-01 -4.293E-01 -4.288E-01 -4.287E-01 -4.282E-01 -4.276E-01 -4.274E-01
                -4.261E-01 -4.259E-01 -4.251E-01 -4.244E-01 -4.222E-01 -4.214E-01 -4.194E-01 -4.181E-01 -4.181E-01 -4.175E-01
                -4.168E-01 -4.165E-01 -4.127E-01 -4.113E-01 -4.110E-01 -4.090E-01 -4.087E-01 -4.076E-01 -4.008E-01 -4.005E-01
                -3.994E-01 -3.983E-01 -3.970E-01 -3.950E-01 -3.922E-01 -3.913E-01 -3.907E-01 -3.906E-01 -3.860E-01 -3.853E-01
                -3.848E-01 -3.841E-01 -3.831E-01 -3.823E-01 -3.817E-01 -3.815E-01 -3.790E-01 -3.788E-01 -3.782E-01 -3.776E-01
                -3.754E-01 -3.738E-01 -3.734E-01 -3.733E-01 -3.722E-01 -3.709E-01 -3.704E-01 -3.701E-01 -3.701E-01 -3.699E-01
                -3.649E-01 -3.644E-01 -3.641E-01 -3.640E-01 -3.638E-01 -3.634E-01 -3.623E-01 -3.620E-01 -3.601E-01 -3.580E-01
                -3.577E-01 -3.575E-01 -3.572E-01 -3.572E-01 -3.512E-01 -3.500E-01 -3.476E-01 -3.473E-01 -3.461E-01 -3.452E-01
                -3.450E-01 -3.446E-01 -3.441E-01 -3.441E-01 -3.421E-01 -3.418E-01 -3.408E-01 -3.403E-01 -3.397E-01 -3.395E-01
                -3.390E-01 -3.387E-01 -3.386E-01 -3.386E-01 -3.383E-01 -3.365E-01 -3.339E-01 -3.333E-01 -3.311E-01 -3.309E-01
                -3.307E-01 -3.306E-01 -3.305E-01 -3.304E-01 -3.302E-01 -3.301E-01 -3.291E-01 -3.279E-01 -3.278E-01 -3.270E-01
                -3.269E-01 -3.268E-01 -3.259E-01 -3.248E-01 -3.211E-01 -3.209E-01 -3.172E-01 -3.163E-01 -3.158E-01 -3.156E-01
                -3.122E-01 -3.116E-01 -3.107E-01 -3.105E-01 -3.094E-01 -3.094E-01 -3.089E-01 -3.080E-01 -3.039E-01 -3.038E-01
                -3.038E-01 -3.037E-01 -3.034E-01 -3.031E-01 -3.029E-01 -3.029E-01 -3.028E-01 -3.028E-01 -3.019E-01 -3.015E-01
                -2.970E-01 -2.969E-01 -2.967E-01 -2.967E-01 -2.963E-01 -2.963E-01 -2.955E-01 -2.949E-01 -2.938E-01 -2.930E-01
                -2.912E-01 -2.911E-01 -2.909E-01 -2.907E-01 -2.899E-01 -2.897E-01 -2.897E-01 -2.892E-01 -2.855E-01 -2.852E-01
                -2.848E-01 -2.848E-01 -2.840E-01 -2.830E-01 -2.829E-01 -2.825E-01 -2.816E-01 -2.809E-01 -2.792E-01 -2.789E-01
                -2.789E-01 -2.788E-01 -2.771E-01 -2.766E-01 -2.764E-01 -2.764E-01 -2.762E-01 -2.757E-01 -2.748E-01 -2.746E-01
                -2.708E-01 -2.698E-01 -2.631E-01 -2.630E-01 -2.626E-01 -2.626E-01 -2.620E-01 -2.601E-01 -2.590E-01 -2.589E-01
                -2.586E-01 -2.579E-01 -2.574E-01 -2.567E-01 -2.565E-01 -2.562E-01 -2.559E-01 -2.559E-01 -2.519E-01 -2.507E-01
                -2.498E-01 -2.492E-01 -2.491E-01 -2.485E-01 -2.482E-01 -2.482E-01 -2.468E-01 -2.462E-01 -2.460E-01 -2.458E-01
                -2.458E-01 -2.456E-01 -2.448E-01 -2.448E-01 -2.445E-01 -2.440E-01 -2.429E-01 -2.426E-01 -2.421E-01 -2.421E-01
                -2.415E-01 -2.414E-01 -2.413E-01 -2.410E-01 -2.408E-01 -2.407E-01 -2.396E-01 -2.388E-01 -2.386E-01 -2.383E-01
                -2.372E-01 -2.365E-01 -2.355E-01 -2.352E-01 -2.352E-01 -2.349E-01 -2.339E-01 -2.336E-01 -2.329E-01 -2.328E-01
                -2.327E-01 -2.326E-01 -2.323E-01 -2.321E-01 -2.321E-01 -2.313E-01 -2.310E-01 -2.307E-01 -2.306E-01 -2.295E-01
                -2.271E-01 -2.268E-01 -2.264E-01 -2.260E-01 -2.259E-01 -2.251E-01 -2.239E-01 -2.232E-01 -2.209E-01 -2.207E-01
                -2.206E-01 -2.203E-01 -2.177E-01 -2.171E-01 -2.158E-01 -2.150E-01 -2.132E-01 -2.130E-01 -2.098E-01 -2.095E-01
                -2.094E-01 -2.094E-01 -2.092E-01 -2.092E-01 -2.080E-01 -2.079E-01 -2.074E-01 -2.073E-01  9.368E-03  1.026E-02
                 2.781E-02  2.996E-02  3.038E-02

   5(***/480240/480  0/480)
                -7.398E-01 -7.398E-01 -7.398E-01 -7.398E-01 -7.398E-01 -7.398E-01 -7.396E-01 -7.396E-01 -7.396E-01 -7.395E-01
                -7.392E-01 -7.392E-01 -7.392E-01 -7.392E-01 -7.390E-01 -7.390E-01 -7.390E-01 -7.390E-01 -7.388E-01 -7.388E-01
                -7.388E-01 -7.388E-01 -7.386E-01 -7.386E-01 -7.386E-01 -7.386E-01 -7.383E-01 -7.383E-01 -7.383E-01 -7.383E-01
                -7.378E-01 -7.378E-01 -7.378E-01 -7.378E-01 -7.377E-01 -7.377E-01 -7.377E-01 -7.377E-01 -7.373E-01 -7.373E-01
                -7.373E-01 -7.373E-01 -7.365E-01 -7.365E-01 -7.365E-01 -7.365E-01 -7.322E-01 -7.322E-01 -7.322E-01 -7.322E-01
                -7.314E-01 -7.314E-01 -7.314E-01 -7.314E-01 -7.269E-01 -7.269E-01 -7.269E-01 -7.269E-01 -7.253E-01 -7.253E-01
                -7.253E-01 -7.253E-01 -7.238E-01 -7.238E-01 -7.238E-01 -7.238E-01 -7.221E-01 -7.221E-01 -7.221E-01 -7.221E-01
                -7.217E-01 -7.217E-01 -7.217E-01 -7.216E-01 -7.211E-01 -7.211E-01 -7.211E-01 -7.211E-01 -7.197E-01 -7.197E-01
                -7.197E-01 -7.197E-01 -7.180E-01 -7.180E-01 -7.180E-01 -7.180E-01 -7.164E-01 -7.164E-01 -7.163E-01 -7.163E-01
                -7.118E-01 -7.117E-01 -7.117E-01 -7.117E-01 -7.093E-01 -7.093E-01 -7.093E-01 -7.093E-01 -7.093E-01 -7.093E-01
                -7.093E-01 -7.093E-01 -7.068E-01 -7.068E-01 -7.068E-01 -7.068E-01 -7.054E-01 -7.054E-01 -7.054E-01 -7.054E-01
                -4.545E-01 -4.545E-01 -4.545E-01 -4.545E-01 -4.497E-01 -4.497E-01 -4.497E-01 -4.497E-01 -4.329E-01 -4.329E-01
                -4.329E-01 -4.329E-01 -4.287E-01 -4.287E-01 -4.287E-01 -4.287E-01 -4.286E-01 -4.286E-01 -4.286E-01 -4.286E-01
                -4.231E-01 -4.231E-01 -4.231E-01 -4.231E-01 -4.220E-01 -4.220E-01 -4.220E-01 -4.220E-01 -4.177E-01 -4.177E-01
                -4.177E-01 -4.177E-01 -4.100E-01 -4.100E-01 -4.100E-01 -4.100E-01 -4.043E-01 -4.043E-01 -4.043E-01 -4.043E-01
                -3.974E-01 -3.974E-01 -3.974E-01 -3.974E-01 -3.882E-01 -3.882E-01 -3.881E-01 -3.881E-01 -3.872E-01 -3.872E-01
                -3.872E-01 -3.872E-01 -3.794E-01 -3.794E-01 -3.794E-01 -3.794E-01 -3.766E-01 -3.766E-01 -3.766E-01 -3.766E-01
                -3.761E-01 -3.761E-01 -3.761E-01 -3.761E-01 -3.694E-01 -3.694E-01 -3.694E-01 -3.694E-01 -3.678E-01 -3.678E-01
                -3.678E-01 -3.678E-01 -3.646E-01 -3.646E-01 -3.646E-01 -3.646E-01 -3.613E-01 -3.613E-01 -3.613E-01 -3.613E-01
                -3.611E-01 -3.611E-01 -3.611E-01 -3.611E-01 -3.487E-01 -3.487E-01 -3.487E-01 -3.487E-01 -3.444E-01 -3.444E-01
                -3.444E-01 -3.444E-01 -3.401E-01 -3.401E-01 -3.400E-01 -3.400E-01 -3.395E-01 -3.395E-01 -3.394E-01 -3.394E-01
                -3.394E-01 -3.394E-01 -3.394E-01 -3.394E-01 -3.357E-01 -3.357E-01 -3.357E-01 -3.357E-01 -3.328E-01 -3.328E-01
                -3.328E-01 -3.328E-01 -3.297E-01 -3.297E-01 -3.297E-01 -3.297E-01 -3.284E-01 -3.284E-01 -3.284E-01 -3.284E-01
                -3.259E-01 -3.259E-01 -3.259E-01 -3.259E-01 -3.228E-01 -3.228E-01 -3.228E-01 -3.228E-01 -3.126E-01 -3.126E-01
                -3.126E-01 -3.126E-01 -3.101E-01 -3.101E-01 -3.101E-01 -3.101E-01 -3.072E-01 -3.072E-01 -3.072E-01 -3.072E-01
                -3.031E-01 -3.031E-01 -3.031E-01 -3.031E-01 -3.020E-01 -3.020E-01 -3.020E-01 -3.019E-01 -2.992E-01 -2.992E-01
                -2.992E-01 -2.992E-01 -2.956E-01 -2.956E-01 -2.955E-01 -2.955E-01 -2.947E-01 -2.947E-01 -2.947E-01 -2.947E-01
                -2.907E-01 -2.907E-01 -2.907E-01 -2.907E-01 -2.901E-01 -2.901E-01 -2.901E-01 -2.901E-01 -2.864E-01 -2.864E-01
                -2.864E-01 -2.864E-01 -2.827E-01 -2.827E-01 -2.827E-01 -2.827E-01 -2.825E-01 -2.825E-01 -2.825E-01 -2.825E-01
                -2.771E-01 -2.771E-01 -2.771E-01 -2.771E-01 -2.763E-01 -2.763E-01 -2.763E-01 -2.763E-01 -2.732E-01 -2.732E-01
                -2.732E-01 -2.732E-01 -2.632E-01 -2.632E-01 -2.632E-01 -2.632E-01 -2.593E-01 -2.593E-01 -2.593E-01 -2.593E-01
                -2.579E-01 -2.579E-01 -2.579E-01 -2.579E-01 -2.568E-01 -2.568E-01 -2.568E-01 -2.568E-01 -2.496E-01 -2.496E-01
                -2.496E-01 -2.496E-01 -2.491E-01 -2.491E-01 -2.491E-01 -2.491E-01 -2.453E-01 -2.453E-01 -2.453E-01 -2.453E-01
                -2.453E-01 -2.453E-01 -2.453E-01 -2.453E-01 -2.441E-01 -2.441E-01 -2.441E-01 -2.440E-01 -2.419E-01 -2.419E-01
                -2.419E-01 -2.419E-01 -2.409E-01 -2.409E-01 -2.409E-01 -2.409E-01 -2.389E-01 -2.389E-01 -2.389E-01 -2.389E-01
                -2.351E-01 -2.351E-01 -2.350E-01 -2.350E-01 -2.345E-01 -2.345E-01 -2.345E-01 -2.345E-01 -2.333E-01 -2.333E-01
                -2.333E-01 -2.333E-01 -2.319E-01 -2.319E-01 -2.319E-01 -2.319E-01 -2.310E-01 -2.310E-01 -2.310E-01 -2.309E-01
                -2.260E-01 -2.260E-01 -2.259E-01 -2.259E-01 -2.251E-01 -2.251E-01 -2.251E-01 -2.251E-01 -2.205E-01 -2.205E-01
                -2.205E-01 -2.205E-01 -2.163E-01 -2.163E-01 -2.163E-01 -2.163E-01 -2.113E-01 -2.113E-01 -2.113E-01 -2.113E-01
                -2.093E-01 -2.093E-01 -2.093E-01 -2.093E-01 -2.076E-01 -2.076E-01 -2.076E-01 -2.076E-01  1.990E-02  1.991E-02
                 1.991E-02  1.991E-02  3.553E-02

 LINE  2 (-0.50 0.50 0.00: 0.00 0.00 0.00) IN TERMS OF PRIMITIVE LATTICE VECTORS
  11 POINTS - SHRINKING_FACTOR1320
 CARTESIAN COORD. (-0.068 0.271-0.017):( 0.000 0.000 0.000) STEP  0.0255


   1(***/***600/***  0/***)
                -7.399E-01 -7.399E-01 -7.397E-01 -7.397E-01 -7.396E-01 -7.396E-01 -7.396E-01 -7.396E-01 -7.395E-01 -7.394E-01
                -7.392E-01 -7.392E-01 -7.391E-01 -7.391E-01 -7.391E-01 -7.391E-01 -7.390E-01 -7.390E-01 -7.389E-01 -7.388E-01
                -7.388E-01 -7.388E-01 -7.387E-01 -7.387E-01 -7.387E-01 -7.387E-01 -7.381E-01 -7.381E-01 -7.381E-01 -7.381E-01
                -7.380E-01 -7.380E-01 -7.379E-01 -7.378E-01 -7.378E-01 -7.377E-01 -7.377E-01 -7.377E-01 -7.372E-01 -7.371E-01
                -7.367E-01 -7.367E-01 -7.367E-01 -7.366E-01 -7.362E-01 -7.361E-01 -7.329E-01 -7.326E-01 -7.325E-01 -7.320E-01
                -7.318E-01 -7.316E-01 -7.311E-01 -7.302E-01 -7.278E-01 -7.275E-01 -7.263E-01 -7.263E-01 -7.262E-01 -7.260E-01
                -7.250E-01 -7.249E-01 -7.245E-01 -7.243E-01 -7.231E-01 -7.230E-01 -7.229E-01 -7.228E-01 -7.228E-01 -7.228E-01
                -7.227E-01 -7.223E-01 -7.217E-01 -7.216E-01 -7.215E-01 -7.214E-01 -7.213E-01 -7.205E-01 -7.192E-01 -7.192E-01
                -7.191E-01 -7.187E-01 -7.182E-01 -7.180E-01 -7.178E-01 -7.177E-01 -7.170E-01 -7.167E-01 -7.148E-01 -7.145E-01
                -7.126E-01 -7.121E-01 -7.110E-01 -7.108E-01 -7.098E-01 -7.096E-01 -7.095E-01 -7.094E-01 -7.091E-01 -7.091E-01
                -7.090E-01 -7.089E-01 -7.080E-01 -7.078E-01 -7.060E-01 -7.057E-01 -7.056E-01 -7.056E-01 -7.052E-01 -7.051E-01
                -4.557E-01 -4.555E-01 -4.538E-01 -4.534E-01 -4.521E-01 -4.518E-01 -4.479E-01 -4.473E-01 -4.339E-01 -4.335E-01
                -4.327E-01 -4.323E-01 -4.311E-01 -4.308E-01 -4.293E-01 -4.288E-01 -4.287E-01 -4.282E-01 -4.276E-01 -4.274E-01
                -4.261E-01 -4.259E-01 -4.251E-01 -4.244E-01 -4.222E-01 -4.214E-01 -4.194E-01 -4.181E-01 -4.181E-01 -4.175E-01
                -4.169E-01 -4.165E-01 -4.127E-01 -4.113E-01 -4.109E-01 -4.090E-01 -4.087E-01 -4.076E-01 -4.007E-01 -4.005E-01
                -3.993E-01 -3.983E-01 -3.970E-01 -3.950E-01 -3.921E-01 -3.913E-01 -3.907E-01 -3.905E-01 -3.860E-01 -3.853E-01
                -3.848E-01 -3.841E-01 -3.831E-01 -3.823E-01 -3.816E-01 -3.814E-01 -3.790E-01 -3.788E-01 -3.782E-01 -3.775E-01
                -3.754E-01 -3.739E-01 -3.735E-01 -3.733E-01 -3.722E-01 -3.709E-01 -3.704E-01 -3.701E-01 -3.701E-01 -3.700E-01
                -3.648E-01 -3.643E-01 -3.641E-01 -3.640E-01 -3.639E-01 -3.634E-01 -3.623E-01 -3.620E-01 -3.601E-01 -3.580E-01
                -3.577E-01 -3.575E-01 -3.573E-01 -3.573E-01 -3.512E-01 -3.500E-01 -3.476E-01 -3.473E-01 -3.461E-01 -3.451E-01
                -3.450E-01 -3.447E-01 -3.441E-01 -3.441E-01 -3.420E-01 -3.417E-01 -3.408E-01 -3.403E-01 -3.397E-01 -3.395E-01
                -3.390E-01 -3.387E-01 -3.386E-01 -3.386E-01 -3.383E-01 -3.364E-01 -3.340E-01 -3.333E-01 -3.311E-01 -3.309E-01
                -3.308E-01 -3.305E-01 -3.305E-01 -3.304E-01 -3.302E-01 -3.301E-01 -3.290E-01 -3.278E-01 -3.278E-01 -3.271E-01
                -3.269E-01 -3.268E-01 -3.259E-01 -3.249E-01 -3.212E-01 -3.210E-01 -3.173E-01 -3.163E-01 -3.158E-01 -3.157E-01
                -3.121E-01 -3.115E-01 -3.107E-01 -3.104E-01 -3.095E-01 -3.094E-01 -3.089E-01 -3.080E-01 -3.039E-01 -3.038E-01
                -3.038E-01 -3.037E-01 -3.034E-01 -3.031E-01 -3.029E-01 -3.029E-01 -3.028E-01 -3.028E-01 -3.018E-01 -3.015E-01
                -2.970E-01 -2.969E-01 -2.967E-01 -2.967E-01 -2.963E-01 -2.963E-01 -2.955E-01 -2.949E-01 -2.938E-01 -2.930E-01
                -2.912E-01 -2.911E-01 -2.909E-01 -2.907E-01 -2.899E-01 -2.897E-01 -2.897E-01 -2.892E-01 -2.855E-01 -2.852E-01
                -2.848E-01 -2.848E-01 -2.840E-01 -2.830E-01 -2.829E-01 -2.825E-01 -2.816E-01 -2.809E-01 -2.792E-01 -2.790E-01
                -2.789E-01 -2.789E-01 -2.771E-01 -2.766E-01 -2.764E-01 -2.764E-01 -2.762E-01 -2.757E-01 -2.748E-01 -2.746E-01
                -2.708E-01 -2.699E-01 -2.631E-01 -2.630E-01 -2.626E-01 -2.626E-01 -2.620E-01 -2.601E-01 -2.590E-01 -2.589E-01
                -2.586E-01 -2.579E-01 -2.574E-01 -2.567E-01 -2.565E-01 -2.562E-01 -2.559E-01 -2.559E-01 -2.519E-01 -2.507E-01
                -2.498E-01 -2.492E-01 -2.491E-01 -2.485E-01 -2.482E-01 -2.482E-01 -2.467E-01 -2.462E-01 -2.460E-01 -2.458E-01
                -2.458E-01 -2.456E-01 -2.448E-01 -2.448E-01 -2.445E-01 -2.440E-01 -2.430E-01 -2.426E-01 -2.421E-01 -2.421E-01
                -2.415E-01 -2.414E-01 -2.413E-01 -2.410E-01 -2.408E-01 -2.407E-01 -2.396E-01 -2.388E-01 -2.386E-01 -2.383E-01
                -2.371E-01 -2.365E-01 -2.355E-01 -2.352E-01 -2.352E-01 -2.349E-01 -2.339E-01 -2.336E-01 -2.329E-01 -2.328E-01
                -2.327E-01 -2.326E-01 -2.323E-01 -2.321E-01 -2.321E-01 -2.313E-01 -2.311E-01 -2.307E-01 -2.306E-01 -2.295E-01
                -2.271E-01 -2.268E-01 -2.263E-01 -2.260E-01 -2.259E-01 -2.251E-01 -2.239E-01 -2.232E-01 -2.208E-01 -2.207E-01
                -2.206E-01 -2.203E-01 -2.177E-01 -2.171E-01 -2.158E-01 -2.150E-01 -2.132E-01 -2.130E-01 -2.098E-01 -2.095E-01
                -2.094E-01 -2.094E-01 -2.092E-01 -2.092E-01 -2.080E-01 -2.079E-01 -2.074E-01 -2.073E-01  9.454E-03  1.033E-02
                 2.788E-02  2.988E-02  3.037E-02

   2(***/***540/***  0/***)
                -7.399E-01 -7.399E-01 -7.396E-01 -7.396E-01 -7.396E-01 -7.395E-01 -7.395E-01 -7.395E-01 -7.394E-01 -7.393E-01
                -7.393E-01 -7.393E-01 -7.391E-01 -7.391E-01 -7.391E-01 -7.391E-01 -7.390E-01 -7.390E-01 -7.390E-01 -7.390E-01
                -7.390E-01 -7.389E-01 -7.389E-01 -7.389E-01 -7.387E-01 -7.386E-01 -7.383E-01 -7.382E-01 -7.380E-01 -7.380E-01
                -7.379E-01 -7.378E-01 -7.378E-01 -7.378E-01 -7.377E-01 -7.376E-01 -7.376E-01 -7.375E-01 -7.369E-01 -7.367E-01
                -7.365E-01 -7.365E-01 -7.364E-01 -7.362E-01 -7.351E-01 -7.350E-01 -7.337E-01 -7.336E-01 -7.328E-01 -7.320E-01
                -7.320E-01 -7.312E-01 -7.306E-01 -7.289E-01 -7.288E-01 -7.282E-01 -7.273E-01 -7.272E-01 -7.263E-01 -7.261E-01
                -7.258E-01 -7.251E-01 -7.249E-01 -7.246E-01 -7.242E-01 -7.238E-01 -7.237E-01 -7.237E-01 -7.235E-01 -7.234E-01
                -7.230E-01 -7.229E-01 -7.219E-01 -7.216E-01 -7.214E-01 -7.211E-01 -7.210E-01 -7.205E-01 -7.201E-01 -7.197E-01
                -7.195E-01 -7.192E-01 -7.172E-01 -7.170E-01 -7.159E-01 -7.159E-01 -7.157E-01 -7.156E-01 -7.136E-01 -7.136E-01
                -7.129E-01 -7.122E-01 -7.105E-01 -7.101E-01 -7.099E-01 -7.099E-01 -7.097E-01 -7.096E-01 -7.090E-01 -7.089E-01
                -7.089E-01 -7.088E-01 -7.088E-01 -7.085E-01 -7.059E-01 -7.058E-01 -7.054E-01 -7.052E-01 -7.049E-01 -7.044E-01
                -4.570E-01 -4.567E-01 -4.543E-01 -4.539E-01 -4.535E-01 -4.526E-01 -4.464E-01 -4.450E-01 -4.352E-01 -4.350E-01
                -4.343E-01 -4.337E-01 -4.328E-01 -4.320E-01 -4.302E-01 -4.293E-01 -4.290E-01 -4.290E-01 -4.289E-01 -4.281E-01
                -4.273E-01 -4.272E-01 -4.266E-01 -4.260E-01 -4.217E-01 -4.216E-01 -4.200E-01 -4.193E-01 -4.190E-01 -4.176E-01
                -4.158E-01 -4.156E-01 -4.133E-01 -4.129E-01 -4.128E-01 -4.116E-01 -4.083E-01 -4.056E-01 -4.046E-01 -4.022E-01
                -3.977E-01 -3.974E-01 -3.966E-01 -3.945E-01 -3.937E-01 -3.935E-01 -3.934E-01 -3.933E-01 -3.912E-01 -3.893E-01
                -3.878E-01 -3.865E-01 -3.847E-01 -3.839E-01 -3.839E-01 -3.821E-01 -3.814E-01 -3.812E-01 -3.788E-01 -3.781E-01
                -3.769E-01 -3.758E-01 -3.728E-01 -3.727E-01 -3.726E-01 -3.717E-01 -3.712E-01 -3.694E-01 -3.675E-01 -3.664E-01
                -3.659E-01 -3.655E-01 -3.649E-01 -3.637E-01 -3.592E-01 -3.592E-01 -3.565E-01 -3.554E-01 -3.551E-01 -3.550E-01
                -3.536E-01 -3.533E-01 -3.531E-01 -3.527E-01 -3.526E-01 -3.525E-01 -3.523E-01 -3.501E-01 -3.495E-01 -3.491E-01
                -3.482E-01 -3.476E-01 -3.446E-01 -3.445E-01 -3.433E-01 -3.420E-01 -3.409E-01 -3.403E-01 -3.400E-01 -3.394E-01
                -3.388E-01 -3.377E-01 -3.376E-01 -3.370E-01 -3.368E-01 -3.363E-01 -3.347E-01 -3.341E-01 -3.337E-01 -3.322E-01
                -3.320E-01 -3.320E-01 -3.318E-01 -3.316E-01 -3.284E-01 -3.277E-01 -3.265E-01 -3.265E-01 -3.264E-01 -3.239E-01
                -3.216E-01 -3.214E-01 -3.201E-01 -3.197E-01 -3.190E-01 -3.184E-01 -3.165E-01 -3.159E-01 -3.155E-01 -3.140E-01
                -3.133E-01 -3.118E-01 -3.113E-01 -3.081E-01 -3.077E-01 -3.073E-01 -3.071E-01 -3.069E-01 -3.065E-01 -3.061E-01
                -3.056E-01 -3.055E-01 -3.045E-01 -3.037E-01 -3.035E-01 -3.035E-01 -3.023E-01 -3.017E-01 -3.009E-01 -3.004E-01
                -2.996E-01 -2.989E-01 -2.985E-01 -2.963E-01 -2.959E-01 -2.954E-01 -2.949E-01 -2.946E-01 -2.933E-01 -2.926E-01
                -2.919E-01 -2.914E-01 -2.902E-01 -2.892E-01 -2.887E-01 -2.883E-01 -2.873E-01 -2.864E-01 -2.861E-01 -2.857E-01
                -2.851E-01 -2.827E-01 -2.822E-01 -2.821E-01 -2.813E-01 -2.808E-01 -2.806E-01 -2.799E-01 -2.791E-01 -2.784E-01
                -2.777E-01 -2.771E-01 -2.768E-01 -2.765E-01 -2.762E-01 -2.758E-01 -2.743E-01 -2.743E-01 -2.721E-01 -2.714E-01
                -2.687E-01 -2.676E-01 -2.642E-01 -2.620E-01 -2.618E-01 -2.615E-01 -2.614E-01 -2.612E-01 -2.594E-01 -2.594E-01
                -2.586E-01 -2.583E-01 -2.572E-01 -2.558E-01 -2.548E-01 -2.545E-01 -2.544E-01 -2.543E-01 -2.540E-01 -2.520E-01
                -2.503E-01 -2.496E-01 -2.490E-01 -2.483E-01 -2.482E-01 -2.478E-01 -2.478E-01 -2.476E-01 -2.471E-01 -2.471E-01
                -2.462E-01 -2.455E-01 -2.441E-01 -2.440E-01 -2.439E-01 -2.436E-01 -2.429E-01 -2.425E-01 -2.421E-01 -2.420E-01
                -2.417E-01 -2.417E-01 -2.410E-01 -2.409E-01 -2.405E-01 -2.399E-01 -2.397E-01 -2.393E-01 -2.384E-01 -2.384E-01
                -2.383E-01 -2.380E-01 -2.362E-01 -2.358E-01 -2.357E-01 -2.350E-01 -2.341E-01 -2.340E-01 -2.337E-01 -2.335E-01
                -2.326E-01 -2.320E-01 -2.315E-01 -2.312E-01 -2.311E-01 -2.311E-01 -2.303E-01 -2.296E-01 -2.294E-01 -2.288E-01
                -2.285E-01 -2.276E-01 -2.275E-01 -2.259E-01 -2.259E-01 -2.242E-01 -2.226E-01 -2.216E-01 -2.214E-01 -2.212E-01
                -2.207E-01 -2.202E-01 -2.191E-01 -2.181E-01 -2.155E-01 -2.154E-01 -2.151E-01 -2.138E-01 -2.095E-01 -2.095E-01
                -2.093E-01 -2.092E-01 -2.086E-01 -2.084E-01 -2.083E-01 -2.081E-01 -2.073E-01 -2.070E-01 -8.988E-04  1.274E-03
                 2.015E-02  2.601E-02  4.014E-02

   3(***/***480/***  0/***)
                -7.398E-01 -7.397E-01 -7.396E-01 -7.395E-01 -7.395E-01 -7.395E-01 -7.394E-01 -7.394E-01 -7.394E-01 -7.393E-01
                -7.393E-01 -7.393E-01 -7.393E-01 -7.392E-01 -7.391E-01 -7.391E-01 -7.391E-01 -7.391E-01 -7.390E-01 -7.390E-01
                -7.390E-01 -7.389E-01 -7.389E-01 -7.389E-01 -7.386E-01 -7.385E-01 -7.384E-01 -7.383E-01 -7.381E-01 -7.381E-01
                -7.379E-01 -7.378E-01 -7.377E-01 -7.376E-01 -7.375E-01 -7.373E-01 -7.372E-01 -7.371E-01 -7.370E-01 -7.368E-01
                -7.362E-01 -7.358E-01 -7.357E-01 -7.356E-01 -7.345E-01 -7.345E-01 -7.336E-01 -7.336E-01 -7.331E-01 -7.322E-01
                -7.322E-01 -7.311E-01 -7.299E-01 -7.296E-01 -7.288E-01 -7.284E-01 -7.283E-01 -7.278E-01 -7.276E-01 -7.275E-01
                -7.262E-01 -7.259E-01 -7.253E-01 -7.253E-01 -7.250E-01 -7.250E-01 -7.246E-01 -7.244E-01 -7.242E-01 -7.239E-01
                -7.232E-01 -7.226E-01 -7.218E-01 -7.217E-01 -7.214E-01 -7.212E-01 -7.210E-01 -7.207E-01 -7.206E-01 -7.206E-01
                -7.195E-01 -7.187E-01 -7.153E-01 -7.150E-01 -7.149E-01 -7.145E-01 -7.145E-01 -7.141E-01 -7.138E-01 -7.134E-01
                -7.119E-01 -7.119E-01 -7.114E-01 -7.101E-01 -7.099E-01 -7.098E-01 -7.093E-01 -7.091E-01 -7.091E-01 -7.089E-01
                -7.089E-01 -7.088E-01 -7.087E-01 -7.083E-01 -7.060E-01 -7.059E-01 -7.053E-01 -7.049E-01 -7.047E-01 -7.033E-01
                -4.584E-01 -4.580E-01 -4.564E-01 -4.559E-01 -4.536E-01 -4.521E-01 -4.457E-01 -4.431E-01 -4.394E-01 -4.372E-01
                -4.366E-01 -4.352E-01 -4.332E-01 -4.320E-01 -4.315E-01 -4.314E-01 -4.312E-01 -4.303E-01 -4.298E-01 -4.294E-01
                -4.282E-01 -4.278E-01 -4.273E-01 -4.261E-01 -4.244E-01 -4.241E-01 -4.216E-01 -4.214E-01 -4.202E-01 -4.189E-01
                -4.186E-01 -4.181E-01 -4.155E-01 -4.146E-01 -4.086E-01 -4.082E-01 -4.080E-01 -4.065E-01 -4.056E-01 -4.039E-01
                -4.012E-01 -3.991E-01 -3.975E-01 -3.970E-01 -3.966E-01 -3.955E-01 -3.953E-01 -3.950E-01 -3.945E-01 -3.927E-01
                -3.911E-01 -3.908E-01 -3.903E-01 -3.894E-01 -3.838E-01 -3.837E-01 -3.819E-01 -3.818E-01 -3.813E-01 -3.801E-01
                -3.744E-01 -3.729E-01 -3.729E-01 -3.726E-01 -3.726E-01 -3.712E-01 -3.711E-01 -3.684E-01 -3.672E-01 -3.667E-01
                -3.663E-01 -3.657E-01 -3.638E-01 -3.602E-01 -3.600E-01 -3.587E-01 -3.545E-01 -3.540E-01 -3.536E-01 -3.533E-01
                -3.529E-01 -3.529E-01 -3.525E-01 -3.514E-01 -3.505E-01 -3.494E-01 -3.491E-01 -3.489E-01 -3.480E-01 -3.478E-01
                -3.474E-01 -3.455E-01 -3.453E-01 -3.448E-01 -3.434E-01 -3.420E-01 -3.417E-01 -3.411E-01 -3.403E-01 -3.398E-01
                -3.397E-01 -3.397E-01 -3.393E-01 -3.358E-01 -3.354E-01 -3.343E-01 -3.342E-01 -3.337E-01 -3.336E-01 -3.326E-01
                -3.325E-01 -3.325E-01 -3.318E-01 -3.287E-01 -3.264E-01 -3.261E-01 -3.235E-01 -3.233E-01 -3.221E-01 -3.212E-01
                -3.212E-01 -3.192E-01 -3.189E-01 -3.161E-01 -3.157E-01 -3.153E-01 -3.152E-01 -3.138E-01 -3.135E-01 -3.124E-01
                -3.123E-01 -3.112E-01 -3.112E-01 -3.100E-01 -3.081E-01 -3.078E-01 -3.077E-01 -3.065E-01 -3.049E-01 -3.047E-01
                -3.047E-01 -3.044E-01 -3.043E-01 -3.042E-01 -3.035E-01 -3.034E-01 -3.027E-01 -3.026E-01 -3.013E-01 -3.005E-01
                -2.985E-01 -2.969E-01 -2.963E-01 -2.963E-01 -2.962E-01 -2.943E-01 -2.942E-01 -2.937E-01 -2.931E-01 -2.926E-01
                -2.923E-01 -2.897E-01 -2.894E-01 -2.883E-01 -2.878E-01 -2.862E-01 -2.862E-01 -2.861E-01 -2.858E-01 -2.858E-01
                -2.831E-01 -2.828E-01 -2.815E-01 -2.812E-01 -2.810E-01 -2.807E-01 -2.804E-01 -2.799E-01 -2.799E-01 -2.780E-01
                -2.769E-01 -2.763E-01 -2.762E-01 -2.747E-01 -2.713E-01 -2.702E-01 -2.699E-01 -2.695E-01 -2.681E-01 -2.676E-01
                -2.671E-01 -2.668E-01 -2.656E-01 -2.626E-01 -2.605E-01 -2.601E-01 -2.600E-01 -2.597E-01 -2.595E-01 -2.587E-01
                -2.585E-01 -2.583E-01 -2.569E-01 -2.568E-01 -2.548E-01 -2.533E-01 -2.527E-01 -2.526E-01 -2.526E-01 -2.521E-01
                -2.507E-01 -2.506E-01 -2.502E-01 -2.501E-01 -2.497E-01 -2.488E-01 -2.482E-01 -2.478E-01 -2.472E-01 -2.466E-01
                -2.465E-01 -2.458E-01 -2.445E-01 -2.436E-01 -2.432E-01 -2.431E-01 -2.430E-01 -2.429E-01 -2.425E-01 -2.421E-01
                -2.420E-01 -2.416E-01 -2.412E-01 -2.404E-01 -2.403E-01 -2.402E-01 -2.399E-01 -2.393E-01 -2.382E-01 -2.380E-01
                -2.377E-01 -2.372E-01 -2.370E-01 -2.368E-01 -2.364E-01 -2.354E-01 -2.351E-01 -2.340E-01 -2.336E-01 -2.336E-01
                -2.325E-01 -2.315E-01 -2.312E-01 -2.310E-01 -2.303E-01 -2.302E-01 -2.302E-01 -2.296E-01 -2.284E-01 -2.283E-01
                -2.282E-01 -2.281E-01 -2.279E-01 -2.262E-01 -2.257E-01 -2.235E-01 -2.224E-01 -2.221E-01 -2.215E-01 -2.206E-01
                -2.204E-01 -2.202E-01 -2.199E-01 -2.194E-01 -2.176E-01 -2.174E-01 -2.155E-01 -2.128E-01 -2.098E-01 -2.096E-01
                -2.094E-01 -2.092E-01 -2.089E-01 -2.087E-01 -2.078E-01 -2.072E-01 -2.068E-01 -2.067E-01 -1.104E-02 -7.130E-03
                 1.246E-02  2.234E-02  4.650E-02

   4(***/***420/***  0/***)
                -7.397E-01 -7.396E-01 -7.396E-01 -7.395E-01 -7.395E-01 -7.395E-01 -7.394E-01 -7.394E-01 -7.393E-01 -7.393E-01
                -7.393E-01 -7.393E-01 -7.393E-01 -7.393E-01 -7.392E-01 -7.392E-01 -7.391E-01 -7.391E-01 -7.390E-01 -7.390E-01
                -7.390E-01 -7.389E-01 -7.389E-01 -7.388E-01 -7.386E-01 -7.385E-01 -7.383E-01 -7.382E-01 -7.381E-01 -7.380E-01
                -7.378E-01 -7.378E-01 -7.377E-01 -7.374E-01 -7.373E-01 -7.371E-01 -7.371E-01 -7.369E-01 -7.369E-01 -7.369E-01
                -7.357E-01 -7.353E-01 -7.352E-01 -7.351E-01 -7.351E-01 -7.349E-01 -7.335E-01 -7.327E-01 -7.324E-01 -7.319E-01
                -7.318E-01 -7.312E-01 -7.305E-01 -7.296E-01 -7.294E-01 -7.294E-01 -7.294E-01 -7.292E-01 -7.289E-01 -7.272E-01
                -7.269E-01 -7.264E-01 -7.264E-01 -7.261E-01 -7.261E-01 -7.256E-01 -7.253E-01 -7.251E-01 -7.248E-01 -7.235E-01
                -7.233E-01 -7.229E-01 -7.229E-01 -7.228E-01 -7.218E-01 -7.209E-01 -7.204E-01 -7.202E-01 -7.201E-01 -7.196E-01
                -7.196E-01 -7.181E-01 -7.154E-01 -7.142E-01 -7.139E-01 -7.136E-01 -7.135E-01 -7.130E-01 -7.124E-01 -7.123E-01
                -7.122E-01 -7.119E-01 -7.114E-01 -7.103E-01 -7.101E-01 -7.100E-01 -7.093E-01 -7.086E-01 -7.086E-01 -7.085E-01
                -7.081E-01 -7.081E-01 -7.080E-01 -7.079E-01 -7.062E-01 -7.059E-01 -7.055E-01 -7.048E-01 -7.047E-01 -7.024E-01
                -4.597E-01 -4.593E-01 -4.583E-01 -4.578E-01 -4.541E-01 -4.521E-01 -4.461E-01 -4.433E-01 -4.425E-01 -4.403E-01
                -4.372E-01 -4.357E-01 -4.338E-01 -4.338E-01 -4.335E-01 -4.331E-01 -4.321E-01 -4.319E-01 -4.319E-01 -4.301E-01
                -4.299E-01 -4.293E-01 -4.284E-01 -4.276E-01 -4.275E-01 -4.259E-01 -4.242E-01 -4.226E-01 -4.217E-01 -4.216E-01
                -4.215E-01 -4.180E-01 -4.167E-01 -4.154E-01 -4.122E-01 -4.089E-01 -4.080E-01 -4.058E-01 -4.035E-01 -4.034E-01
                -4.026E-01 -4.024E-01 -4.019E-01 -4.016E-01 -4.006E-01 -3.996E-01 -3.978E-01 -3.971E-01 -3.963E-01 -3.963E-01
                -3.947E-01 -3.932E-01 -3.925E-01 -3.867E-01 -3.861E-01 -3.860E-01 -3.860E-01 -3.842E-01 -3.804E-01 -3.787E-01
                -3.748E-01 -3.747E-01 -3.742E-01 -3.740E-01 -3.727E-01 -3.707E-01 -3.704E-01 -3.682E-01 -3.678E-01 -3.673E-01
                -3.660E-01 -3.655E-01 -3.653E-01 -3.646E-01 -3.591E-01 -3.572E-01 -3.567E-01 -3.563E-01 -3.550E-01 -3.525E-01
                -3.523E-01 -3.502E-01 -3.484E-01 -3.477E-01 -3.470E-01 -3.463E-01 -3.461E-01 -3.458E-01 -3.456E-01 -3.449E-01
                -3.449E-01 -3.448E-01 -3.446E-01 -3.441E-01 -3.428E-01 -3.428E-01 -3.422E-01 -3.410E-01 -3.397E-01 -3.385E-01
                -3.380E-01 -3.377E-01 -3.372E-01 -3.371E-01 -3.370E-01 -3.352E-01 -3.333E-01 -3.330E-01 -3.327E-01 -3.309E-01
                -3.307E-01 -3.307E-01 -3.262E-01 -3.260E-01 -3.258E-01 -3.244E-01 -3.243E-01 -3.215E-01 -3.214E-01 -3.199E-01
                -3.185E-01 -3.175E-01 -3.170E-01 -3.163E-01 -3.146E-01 -3.143E-01 -3.136E-01 -3.121E-01 -3.116E-01 -3.103E-01
                -3.096E-01 -3.092E-01 -3.089E-01 -3.083E-01 -3.072E-01 -3.071E-01 -3.068E-01 -3.068E-01 -3.059E-01 -3.054E-01
                -3.049E-01 -3.043E-01 -3.041E-01 -3.038E-01 -3.027E-01 -3.018E-01 -3.017E-01 -3.006E-01 -3.002E-01 -2.981E-01
                -2.975E-01 -2.960E-01 -2.952E-01 -2.947E-01 -2.945E-01 -2.939E-01 -2.926E-01 -2.923E-01 -2.910E-01 -2.905E-01
                -2.897E-01 -2.893E-01 -2.885E-01 -2.884E-01 -2.879E-01 -2.871E-01 -2.869E-01 -2.860E-01 -2.840E-01 -2.839E-01
                -2.836E-01 -2.821E-01 -2.811E-01 -2.810E-01 -2.810E-01 -2.807E-01 -2.807E-01 -2.798E-01 -2.789E-01 -2.751E-01
                -2.749E-01 -2.747E-01 -2.726E-01 -2.723E-01 -2.678E-01 -2.673E-01 -2.666E-01 -2.661E-01 -2.650E-01 -2.648E-01
                -2.646E-01 -2.632E-01 -2.631E-01 -2.627E-01 -2.617E-01 -2.597E-01 -2.590E-01 -2.588E-01 -2.586E-01 -2.572E-01
                -2.565E-01 -2.565E-01 -2.565E-01 -2.562E-01 -2.544E-01 -2.537E-01 -2.530E-01 -2.527E-01 -2.527E-01 -2.521E-01
                -2.513E-01 -2.511E-01 -2.506E-01 -2.504E-01 -2.500E-01 -2.492E-01 -2.491E-01 -2.483E-01 -2.475E-01 -2.469E-01
                -2.456E-01 -2.452E-01 -2.452E-01 -2.445E-01 -2.445E-01 -2.428E-01 -2.428E-01 -2.420E-01 -2.419E-01 -2.417E-01
                -2.414E-01 -2.413E-01 -2.412E-01 -2.406E-01 -2.399E-01 -2.399E-01 -2.394E-01 -2.389E-01 -2.385E-01 -2.381E-01
                -2.379E-01 -2.376E-01 -2.374E-01 -2.373E-01 -2.359E-01 -2.359E-01 -2.352E-01 -2.337E-01 -2.333E-01 -2.333E-01
                -2.322E-01 -2.317E-01 -2.314E-01 -2.310E-01 -2.308E-01 -2.305E-01 -2.295E-01 -2.290E-01 -2.288E-01 -2.285E-01
                -2.281E-01 -2.270E-01 -2.269E-01 -2.265E-01 -2.255E-01 -2.231E-01 -2.230E-01 -2.230E-01 -2.217E-01 -2.209E-01
                -2.204E-01 -2.204E-01 -2.204E-01 -2.200E-01 -2.199E-01 -2.189E-01 -2.157E-01 -2.118E-01 -2.100E-01 -2.098E-01
                -2.097E-01 -2.093E-01 -2.092E-01 -2.091E-01 -2.072E-01 -2.072E-01 -2.065E-01 -2.059E-01 -2.083E-02 -1.472E-02
                 4.909E-03  1.945E-02  4.162E-02

   5(***/***360/***  0/***)
                -7.396E-01 -7.395E-01 -7.394E-01 -7.394E-01 -7.394E-01 -7.393E-01 -7.393E-01 -7.393E-01 -7.393E-01 -7.393E-01
                -7.393E-01 -7.393E-01 -7.392E-01 -7.392E-01 -7.392E-01 -7.392E-01 -7.392E-01 -7.391E-01 -7.391E-01 -7.390E-01
                -7.390E-01 -7.390E-01 -7.388E-01 -7.387E-01 -7.385E-01 -7.383E-01 -7.382E-01 -7.381E-01 -7.380E-01 -7.380E-01
                -7.378E-01 -7.377E-01 -7.376E-01 -7.372E-01 -7.372E-01 -7.372E-01 -7.370E-01 -7.370E-01 -7.369E-01 -7.365E-01
                -7.361E-01 -7.358E-01 -7.351E-01 -7.346E-01 -7.346E-01 -7.345E-01 -7.338E-01 -7.334E-01 -7.326E-01 -7.316E-01
                -7.312E-01 -7.308E-01 -7.308E-01 -7.308E-01 -7.306E-01 -7.300E-01 -7.300E-01 -7.298E-01 -7.281E-01 -7.279E-01
                -7.277E-01 -7.275E-01 -7.273E-01 -7.273E-01 -7.267E-01 -7.262E-01 -7.256E-01 -7.250E-01 -7.245E-01 -7.243E-01
                -7.242E-01 -7.239E-01 -7.227E-01 -7.225E-01 -7.213E-01 -7.206E-01 -7.200E-01 -7.197E-01 -7.196E-01 -7.194E-01
                -7.187E-01 -7.177E-01 -7.164E-01 -7.153E-01 -7.140E-01 -7.133E-01 -7.131E-01 -7.129E-01 -7.115E-01 -7.112E-01
                -7.108E-01 -7.105E-01 -7.104E-01 -7.103E-01 -7.102E-01 -7.101E-01 -7.096E-01 -7.087E-01 -7.083E-01 -7.080E-01
                -7.072E-01 -7.070E-01 -7.070E-01 -7.069E-01 -7.062E-01 -7.060E-01 -7.059E-01 -7.051E-01 -7.046E-01 -7.015E-01
                -4.609E-01 -4.605E-01 -4.599E-01 -4.596E-01 -4.548E-01 -4.526E-01 -4.478E-01 -4.467E-01 -4.438E-01 -4.427E-01
                -4.368E-01 -4.363E-01 -4.359E-01 -4.359E-01 -4.354E-01 -4.348E-01 -4.345E-01 -4.341E-01 -4.332E-01 -4.323E-01
                -4.308E-01 -4.305E-01 -4.303E-01 -4.287E-01 -4.282E-01 -4.276E-01 -4.266E-01 -4.259E-01 -4.242E-01 -4.231E-01
                -4.221E-01 -4.188E-01 -4.172E-01 -4.156E-01 -4.152E-01 -4.121E-01 -4.106E-01 -4.100E-01 -4.083E-01 -4.073E-01
                -4.057E-01 -4.043E-01 -4.025E-01 -4.022E-01 -4.017E-01 -4.016E-01 -3.991E-01 -3.986E-01 -3.983E-01 -3.980E-01
                -3.965E-01 -3.926E-01 -3.919E-01 -3.895E-01 -3.882E-01 -3.880E-01 -3.858E-01 -3.850E-01 -3.813E-01 -3.791E-01
                -3.777E-01 -3.772E-01 -3.767E-01 -3.762E-01 -3.761E-01 -3.741E-01 -3.708E-01 -3.692E-01 -3.682E-01 -3.673E-01
                -3.667E-01 -3.647E-01 -3.640E-01 -3.622E-01 -3.598E-01 -3.589E-01 -3.582E-01 -3.565E-01 -3.529E-01 -3.517E-01
                -3.515E-01 -3.507E-01 -3.494E-01 -3.478E-01 -3.466E-01 -3.462E-01 -3.460E-01 -3.457E-01 -3.442E-01 -3.434E-01
                -3.429E-01 -3.418E-01 -3.416E-01 -3.406E-01 -3.403E-01 -3.401E-01 -3.389E-01 -3.386E-01 -3.378E-01 -3.373E-01
                -3.370E-01 -3.369E-01 -3.347E-01 -3.341E-01 -3.338E-01 -3.337E-01 -3.326E-01 -3.310E-01 -3.301E-01 -3.298E-01
                -3.277E-01 -3.267E-01 -3.263E-01 -3.253E-01 -3.253E-01 -3.231E-01 -3.225E-01 -3.204E-01 -3.198E-01 -3.189E-01
                -3.180E-01 -3.173E-01 -3.167E-01 -3.166E-01 -3.160E-01 -3.142E-01 -3.117E-01 -3.115E-01 -3.093E-01 -3.081E-01
                -3.080E-01 -3.079E-01 -3.077E-01 -3.077E-01 -3.076E-01 -3.064E-01 -3.063E-01 -3.059E-01 -3.058E-01 -3.035E-01
                -3.033E-01 -3.018E-01 -3.013E-01 -3.006E-01 -3.002E-01 -2.999E-01 -2.986E-01 -2.985E-01 -2.976E-01 -2.969E-01
                -2.965E-01 -2.957E-01 -2.947E-01 -2.946E-01 -2.930E-01 -2.921E-01 -2.917E-01 -2.914E-01 -2.898E-01 -2.886E-01
                -2.881E-01 -2.879E-01 -2.878E-01 -2.869E-01 -2.868E-01 -2.864E-01 -2.863E-01 -2.858E-01 -2.851E-01 -2.816E-01
                -2.816E-01 -2.811E-01 -2.810E-01 -2.810E-01 -2.808E-01 -2.806E-01 -2.801E-01 -2.799E-01 -2.798E-01 -2.732E-01
                -2.711E-01 -2.705E-01 -2.696E-01 -2.681E-01 -2.677E-01 -2.663E-01 -2.662E-01 -2.659E-01 -2.649E-01 -2.624E-01
                -2.611E-01 -2.611E-01 -2.604E-01 -2.590E-01 -2.589E-01 -2.585E-01 -2.577E-01 -2.572E-01 -2.571E-01 -2.563E-01
                -2.556E-01 -2.555E-01 -2.552E-01 -2.551E-01 -2.550E-01 -2.537E-01 -2.537E-01 -2.533E-01 -2.529E-01 -2.526E-01
                -2.524E-01 -2.515E-01 -2.512E-01 -2.502E-01 -2.495E-01 -2.482E-01 -2.473E-01 -2.469E-01 -2.468E-01 -2.467E-01
                -2.467E-01 -2.465E-01 -2.457E-01 -2.439E-01 -2.433E-01 -2.430E-01 -2.429E-01 -2.419E-01 -2.408E-01 -2.407E-01
                -2.406E-01 -2.406E-01 -2.405E-01 -2.399E-01 -2.397E-01 -2.397E-01 -2.395E-01 -2.394E-01 -2.388E-01 -2.385E-01
                -2.383E-01 -2.375E-01 -2.372E-01 -2.371E-01 -2.362E-01 -2.360E-01 -2.335E-01 -2.333E-01 -2.332E-01 -2.327E-01
                -2.325E-01 -2.321E-01 -2.319E-01 -2.314E-01 -2.312E-01 -2.299E-01 -2.297E-01 -2.294E-01 -2.290E-01 -2.287E-01
                -2.280E-01 -2.267E-01 -2.261E-01 -2.256E-01 -2.252E-01 -2.235E-01 -2.234E-01 -2.229E-01 -2.227E-01 -2.226E-01
                -2.225E-01 -2.224E-01 -2.208E-01 -2.204E-01 -2.194E-01 -2.186E-01 -2.159E-01 -2.110E-01 -2.103E-01 -2.101E-01
                -2.100E-01 -2.098E-01 -2.097E-01 -2.091E-01 -2.073E-01 -2.069E-01 -2.064E-01 -2.052E-01 -3.010E-02 -2.130E-02
                -2.380E-03  1.734E-02  3.696E-02

   6(***/***300/***  0/***)
                -7.394E-01 -7.394E-01 -7.393E-01 -7.393E-01 -7.393E-01 -7.393E-01 -7.392E-01 -7.392E-01 -7.392E-01 -7.392E-01
                -7.392E-01 -7.391E-01 -7.391E-01 -7.391E-01 -7.391E-01 -7.391E-01 -7.391E-01 -7.390E-01 -7.390E-01 -7.390E-01
                -7.390E-01 -7.389E-01 -7.387E-01 -7.385E-01 -7.385E-01 -7.382E-01 -7.380E-01 -7.380E-01 -7.380E-01 -7.379E-01
                -7.377E-01 -7.376E-01 -7.376E-01 -7.373E-01 -7.372E-01 -7.371E-01 -7.371E-01 -7.370E-01 -7.369E-01 -7.367E-01
                -7.363E-01 -7.361E-01 -7.347E-01 -7.344E-01 -7.343E-01 -7.343E-01 -7.343E-01 -7.342E-01 -7.327E-01 -7.323E-01
                -7.322E-01 -7.321E-01 -7.320E-01 -7.319E-01 -7.318E-01 -7.305E-01 -7.289E-01 -7.287E-01 -7.284E-01 -7.283E-01
                -7.281E-01 -7.280E-01 -7.278E-01 -7.277E-01 -7.272E-01 -7.263E-01 -7.263E-01 -7.256E-01 -7.254E-01 -7.248E-01
                -7.236E-01 -7.230E-01 -7.226E-01 -7.215E-01 -7.210E-01 -7.201E-01 -7.197E-01 -7.197E-01 -7.194E-01 -7.186E-01
                -7.179E-01 -7.174E-01 -7.173E-01 -7.162E-01 -7.155E-01 -7.143E-01 -7.126E-01 -7.123E-01 -7.107E-01 -7.104E-01
                -7.103E-01 -7.102E-01 -7.099E-01 -7.099E-01 -7.095E-01 -7.090E-01 -7.087E-01 -7.084E-01 -7.082E-01 -7.081E-01
                -7.066E-01 -7.063E-01 -7.061E-01 -7.060E-01 -7.060E-01 -7.059E-01 -7.057E-01 -7.056E-01 -7.046E-01 -7.008E-01
                -4.621E-01 -4.617E-01 -4.613E-01 -4.611E-01 -4.555E-01 -4.540E-01 -4.503E-01 -4.495E-01 -4.459E-01 -4.442E-01
                -4.396E-01 -4.382E-01 -4.378E-01 -4.375E-01 -4.371E-01 -4.363E-01 -4.353E-01 -4.353E-01 -4.341E-01 -4.340E-01
                -4.325E-01 -4.311E-01 -4.311E-01 -4.310E-01 -4.297E-01 -4.290E-01 -4.289E-01 -4.266E-01 -4.259E-01 -4.245E-01
                -4.226E-01 -4.211E-01 -4.176E-01 -4.165E-01 -4.163E-01 -4.159E-01 -4.148E-01 -4.139E-01 -4.116E-01 -4.095E-01
                -4.088E-01 -4.085E-01 -4.073E-01 -4.066E-01 -4.036E-01 -4.026E-01 -4.008E-01 -3.982E-01 -3.962E-01 -3.950E-01
                -3.949E-01 -3.930E-01 -3.916E-01 -3.910E-01 -3.900E-01 -3.897E-01 -3.894E-01 -3.870E-01 -3.840E-01 -3.804E-01
                -3.795E-01 -3.789E-01 -3.785E-01 -3.785E-01 -3.782E-01 -3.771E-01 -3.713E-01 -3.705E-01 -3.705E-01 -3.685E-01
                -3.680E-01 -3.654E-01 -3.640E-01 -3.602E-01 -3.582E-01 -3.574E-01 -3.571E-01 -3.552E-01 -3.543E-01 -3.534E-01
                -3.533E-01 -3.511E-01 -3.502E-01 -3.491E-01 -3.487E-01 -3.449E-01 -3.444E-01 -3.440E-01 -3.428E-01 -3.424E-01
                -3.412E-01 -3.407E-01 -3.384E-01 -3.384E-01 -3.371E-01 -3.369E-01 -3.361E-01 -3.361E-01 -3.360E-01 -3.358E-01
                -3.347E-01 -3.340E-01 -3.333E-01 -3.333E-01 -3.331E-01 -3.308E-01 -3.292E-01 -3.290E-01 -3.290E-01 -3.247E-01
                -3.243E-01 -3.234E-01 -3.233E-01 -3.232E-01 -3.232E-01 -3.224E-01 -3.214E-01 -3.213E-01 -3.210E-01 -3.198E-01
                -3.177E-01 -3.151E-01 -3.145E-01 -3.145E-01 -3.140E-01 -3.136E-01 -3.134E-01 -3.120E-01 -3.112E-01 -3.108E-01
                -3.095E-01 -3.091E-01 -3.071E-01 -3.063E-01 -3.054E-01 -3.048E-01 -3.043E-01 -3.040E-01 -3.022E-01 -3.021E-01
                -3.018E-01 -3.005E-01 -3.000E-01 -2.980E-01 -2.969E-01 -2.968E-01 -2.960E-01 -2.958E-01 -2.951E-01 -2.951E-01
                -2.943E-01 -2.935E-01 -2.934E-01 -2.912E-01 -2.910E-01 -2.900E-01 -2.899E-01 -2.896E-01 -2.896E-01 -2.894E-01
                -2.889E-01 -2.873E-01 -2.867E-01 -2.860E-01 -2.854E-01 -2.852E-01 -2.845E-01 -2.843E-01 -2.841E-01 -2.827E-01
                -2.814E-01 -2.805E-01 -2.801E-01 -2.799E-01 -2.798E-01 -2.792E-01 -2.791E-01 -2.786E-01 -2.784E-01 -2.709E-01
                -2.705E-01 -2.681E-01 -2.680E-01 -2.655E-01 -2.655E-01 -2.653E-01 -2.648E-01 -2.646E-01 -2.640E-01 -2.624E-01
                -2.604E-01 -2.595E-01 -2.592E-01 -2.589E-01 -2.581E-01 -2.579E-01 -2.576E-01 -2.573E-01 -2.570E-01 -2.567E-01
                -2.552E-01 -2.549E-01 -2.541E-01 -2.538E-01 -2.535E-01 -2.520E-01 -2.517E-01 -2.517E-01 -2.516E-01 -2.513E-01
                -2.512E-01 -2.509E-01 -2.505E-01 -2.505E-01 -2.489E-01 -2.488E-01 -2.485E-01 -2.478E-01 -2.466E-01 -2.457E-01
                -2.454E-01 -2.450E-01 -2.444E-01 -2.442E-01 -2.434E-01 -2.421E-01 -2.415E-01 -2.414E-01 -2.412E-01 -2.409E-01
                -2.405E-01 -2.398E-01 -2.397E-01 -2.394E-01 -2.392E-01 -2.391E-01 -2.390E-01 -2.389E-01 -2.388E-01 -2.382E-01
                -2.371E-01 -2.367E-01 -2.366E-01 -2.362E-01 -2.359E-01 -2.356E-01 -2.336E-01 -2.331E-01 -2.330E-01 -2.329E-01
                -2.325E-01 -2.322E-01 -2.321E-01 -2.317E-01 -2.308E-01 -2.307E-01 -2.304E-01 -2.294E-01 -2.294E-01 -2.286E-01
                -2.279E-01 -2.256E-01 -2.254E-01 -2.254E-01 -2.251E-01 -2.250E-01 -2.249E-01 -2.243E-01 -2.240E-01 -2.237E-01
                -2.231E-01 -2.227E-01 -2.214E-01 -2.208E-01 -2.189E-01 -2.185E-01 -2.162E-01 -2.106E-01 -2.104E-01 -2.103E-01
                -2.103E-01 -2.103E-01 -2.103E-01 -2.091E-01 -2.075E-01 -2.068E-01 -2.063E-01 -2.048E-01 -3.862E-02 -2.672E-02
                -9.268E-03  1.603E-02  3.265E-02

   7(***/***240/***  0/***)
                -7.393E-01 -7.393E-01 -7.393E-01 -7.393E-01 -7.392E-01 -7.392E-01 -7.392E-01 -7.392E-01 -7.391E-01 -7.391E-01
                -7.390E-01 -7.389E-01 -7.389E-01 -7.389E-01 -7.389E-01 -7.388E-01 -7.388E-01 -7.388E-01 -7.387E-01 -7.387E-01
                -7.387E-01 -7.386E-01 -7.385E-01 -7.384E-01 -7.383E-01 -7.380E-01 -7.379E-01 -7.379E-01 -7.379E-01 -7.378E-01
                -7.377E-01 -7.376E-01 -7.375E-01 -7.374E-01 -7.372E-01 -7.372E-01 -7.371E-01 -7.371E-01 -7.371E-01 -7.370E-01
                -7.367E-01 -7.359E-01 -7.352E-01 -7.346E-01 -7.345E-01 -7.343E-01 -7.343E-01 -7.343E-01 -7.335E-01 -7.333E-01
                -7.332E-01 -7.329E-01 -7.328E-01 -7.328E-01 -7.324E-01 -7.309E-01 -7.297E-01 -7.294E-01 -7.292E-01 -7.291E-01
                -7.288E-01 -7.287E-01 -7.281E-01 -7.274E-01 -7.264E-01 -7.260E-01 -7.258E-01 -7.256E-01 -7.254E-01 -7.247E-01
                -7.228E-01 -7.226E-01 -7.215E-01 -7.211E-01 -7.207E-01 -7.197E-01 -7.196E-01 -7.196E-01 -7.193E-01 -7.183E-01
                -7.179E-01 -7.175E-01 -7.170E-01 -7.168E-01 -7.166E-01 -7.153E-01 -7.124E-01 -7.118E-01 -7.108E-01 -7.105E-01
                -7.104E-01 -7.103E-01 -7.094E-01 -7.089E-01 -7.085E-01 -7.085E-01 -7.080E-01 -7.079E-01 -7.076E-01 -7.074E-01
                -7.070E-01 -7.064E-01 -7.063E-01 -7.056E-01 -7.054E-01 -7.051E-01 -7.050E-01 -7.050E-01 -7.048E-01 -7.002E-01
                -4.630E-01 -4.627E-01 -4.625E-01 -4.624E-01 -4.559E-01 -4.557E-01 -4.533E-01 -4.515E-01 -4.481E-01 -4.453E-01
                -4.428E-01 -4.402E-01 -4.399E-01 -4.391E-01 -4.384E-01 -4.382E-01 -4.369E-01 -4.360E-01 -4.350E-01 -4.347E-01
                -4.344E-01 -4.326E-01 -4.324E-01 -4.317E-01 -4.315E-01 -4.296E-01 -4.293E-01 -4.286E-01 -4.261E-01 -4.257E-01
[...]
-rw-r--r-- 1 felipe users         0 Nov 29 04:35 fort.61.pe07
-rw-r--r-- 1 felipe users         0 Nov 29 04:35 fort.61.pe08
-rw-r--r-- 1 felipe users         0 Nov 29 04:35 fort.61.pe09
-rw-r--r-- 1 felipe users         0 Nov 29 04:35 fort.61.pe10
-rw-r--r-- 1 felipe users         0 Nov 29 04:35 fort.61.pe11
-rw-r--r-- 1 felipe users         0 Nov 29 04:35 fort.61.pe12
-rw-r--r-- 1 felipe users         0 Nov 29 04:35 fort.61.pe13
-rw-r--r-- 1 felipe users         0 Nov 29 04:35 fort.61.pe14
-rw-r--r-- 1 felipe users         0 Nov 29 04:35 fort.61.pe15
-rw-r--r-- 1 felipe users         0 Nov 29 04:35 fort.61.pe16
-rw-r--r-- 1 felipe users         0 Nov 29 04:35 fort.61.pe17
-rw-r--r-- 1 felipe users         0 Nov 29 04:35 fort.61.pe18
-rw-r--r-- 1 felipe users         0 Nov 29 04:35 fort.61.pe19
-rw-r--r-- 1 felipe users         0 Nov 29 04:35 fort.61.pe20
-rw-r--r-- 1 felipe users         0 Nov 29 04:35 fort.61.pe21
-rw-r--r-- 1 felipe users         0 Nov 29 04:35 fort.61.pe22
-rw-r--r-- 1 felipe users         0 Nov 29 04:35 fort.61.pe23
-rw-r--r-- 1 felipe users         0 Nov 29 04:35 fort.61.pe24
-rw-r--r-- 1 felipe users         0 Nov 29 04:35 fort.61.pe25
-rw-r--r-- 1 felipe users         0 Nov 29 04:35 fort.61.pe26
-rw-r--r-- 1 felipe users         0 Nov 29 04:35 fort.61.pe27
-rw-r--r-- 1 felipe users         0 Nov 29 04:35 fort.61.pe28
-rw-r--r-- 1 felipe users         0 Nov 29 04:35 fort.61.pe29
-rw-r--r-- 1 felipe users         0 Nov 29 04:35 fort.61.pe30
-rw-r--r-- 1 felipe users         0 Nov 29 04:35 fort.61.pe31
-rw-r--r-- 1 felipe users         0 Nov 29 04:35 fort.61.pe32
-rw-r--r-- 1 felipe users         0 Nov 29 04:35 fort.61.pe33
-rw-r--r-- 1 felipe users         0 Nov 29 04:35 fort.61.pe34
-rw-r--r-- 1 felipe users         0 Nov 29 04:35 fort.61.pe35
-rw-r--r-- 1 felipe users         0 Nov 29 04:35 fort.61.pe36
-rw-r--r-- 1 felipe users         0 Nov 29 04:35 fort.61.pe37
-rw-r--r-- 1 felipe users         0 Nov 29 04:35 fort.61.pe38
-rw-r--r-- 1 felipe users         0 Nov 29 04:35 fort.61.pe39
-rw-r--r-- 1 felipe users         0 Nov 29 04:35 fort.61.pe40
-rw-r--r-- 1 felipe users         0 Nov 29 04:35 fort.61.pe41
-rw-r--r-- 1 felipe users         0 Nov 29 04:35 fort.61.pe42
-rw-r--r-- 1 felipe users         0 Nov 29 04:35 fort.61.pe43
-rw-r--r-- 1 felipe users         0 Nov 29 04:35 fort.61.pe44
-rw-r--r-- 1 felipe users         0 Nov 29 04:35 fort.61.pe45
-rw-r--r-- 1 felipe users         0 Nov 29 04:35 fort.61.pe46
-rw-r--r-- 1 felipe users         0 Nov 29 04:35 fort.61.pe47
-rw-r--r-- 1 felipe users         0 Nov 29 04:35 fort.61.pe48
-rw-r--r-- 1 felipe users         0 Nov 29 04:35 fort.61.pe49
-rw-r--r-- 1 felipe users         0 Nov 29 04:35 fort.61.pe50
-rw-r--r-- 1 felipe users         0 Nov 29 04:35 fort.61.pe51
-rw-r--r-- 1 felipe users         0 Nov 29 04:35 fort.61.pe52
-rw-r--r-- 1 felipe users         0 Nov 29 04:35 fort.61.pe53
-rw-r--r-- 1 felipe users         0 Nov 29 04:35 fort.61.pe54
-rw-r--r-- 1 felipe users         0 Nov 29 04:35 fort.61.pe55
-rw-r--r-- 1 felipe users         0 Nov 29 04:35 fort.61.pe56
-rw-r--r-- 1 felipe users         0 Nov 29 04:35 fort.61.pe57
-rw-r--r-- 1 felipe users         0 Nov 29 04:35 fort.61.pe58
-rw-r--r-- 1 felipe users         0 Nov 29 04:35 fort.61.pe59
-rw-r--r-- 1 felipe users         0 Nov 29 04:35 fort.61.pe60
-rw-r--r-- 1 felipe users         0 Nov 29 04:35 fort.61.pe61
-rw-r--r-- 1 felipe users         0 Nov 29 04:35 fort.61.pe62
-rw-r--r-- 1 felipe users         0 Nov 29 04:35 fort.61.pe63
-rw-r--r-- 1 felipe users         0 Nov 29 04:35 fort.62.pe00
-rw-r--r-- 1 felipe users         0 Nov 29 04:35 fort.62.pe01
-rw-r--r-- 1 felipe users         0 Nov 29 04:35 fort.62.pe02
-rw-r--r-- 1 felipe users         0 Nov 29 04:35 fort.62.pe03
-rw-r--r-- 1 felipe users         0 Nov 29 04:35 fort.62.pe04
-rw-r--r-- 1 felipe users         0 Nov 29 04:35 fort.62.pe05
-rw-r--r-- 1 felipe users         0 Nov 29 04:35 fort.62.pe06
-rw-r--r-- 1 felipe users         0 Nov 29 04:35 fort.62.pe07
-rw-r--r-- 1 felipe users         0 Nov 29 04:35 fort.62.pe08
-rw-r--r-- 1 felipe users         0 Nov 29 04:35 fort.62.pe09
-rw-r--r-- 1 felipe users         0 Nov 29 04:35 fort.62.pe10
-rw-r--r-- 1 felipe users         0 Nov 29 04:35 fort.62.pe11
-rw-r--r-- 1 felipe users         0 Nov 29 04:35 fort.62.pe12
-rw-r--r-- 1 felipe users         0 Nov 29 04:35 fort.62.pe13
-rw-r--r-- 1 felipe users         0 Nov 29 04:35 fort.62.pe14
-rw-r--r-- 1 felipe users         0 Nov 29 04:35 fort.62.pe15
-rw-r--r-- 1 felipe users         0 Nov 29 04:35 fort.62.pe16
-rw-r--r-- 1 felipe users         0 Nov 29 04:35 fort.62.pe17
-rw-r--r-- 1 felipe users         0 Nov 29 04:35 fort.62.pe18
-rw-r--r-- 1 felipe users         0 Nov 29 04:35 fort.62.pe19
-rw-r--r-- 1 felipe users         0 Nov 29 04:35 fort.62.pe20
-rw-r--r-- 1 felipe users         0 Nov 29 04:35 fort.62.pe21
-rw-r--r-- 1 felipe users         0 Nov 29 04:35 fort.62.pe22
-rw-r--r-- 1 felipe users         0 Nov 29 04:35 fort.62.pe23
-rw-r--r-- 1 felipe users         0 Nov 29 04:35 fort.62.pe24
-rw-r--r-- 1 felipe users         0 Nov 29 04:35 fort.62.pe25
-rw-r--r-- 1 felipe users         0 Nov 29 04:35 fort.62.pe26
-rw-r--r-- 1 felipe users         0 Nov 29 04:35 fort.62.pe27
-rw-r--r-- 1 felipe users         0 Nov 29 04:35 fort.62.pe28
-rw-r--r-- 1 felipe users         0 Nov 29 04:35 fort.62.pe29
-rw-r--r-- 1 felipe users         0 Nov 29 04:35 fort.62.pe30
-rw-r--r-- 1 felipe users         0 Nov 29 04:35 fort.62.pe31
-rw-r--r-- 1 felipe users         0 Nov 29 04:35 fort.62.pe32
-rw-r--r-- 1 felipe users         0 Nov 29 04:35 fort.62.pe33
-rw-r--r-- 1 felipe users         0 Nov 29 04:35 fort.62.pe34
-rw-r--r-- 1 felipe users         0 Nov 29 04:35 fort.62.pe35
-rw-r--r-- 1 felipe users         0 Nov 29 04:35 fort.62.pe36
-rw-r--r-- 1 felipe users         0 Nov 29 04:35 fort.62.pe37
-rw-r--r-- 1 felipe users         0 Nov 29 04:35 fort.62.pe38
-rw-r--r-- 1 felipe users         0 Nov 29 04:35 fort.62.pe39
-rw-r--r-- 1 felipe users         0 Nov 29 04:35 fort.62.pe40
-rw-r--r-- 1 felipe users         0 Nov 29 04:35 fort.62.pe41
-rw-r--r-- 1 felipe users         0 Nov 29 04:35 fort.62.pe42
-rw-r--r-- 1 felipe users         0 Nov 29 04:35 fort.62.pe43
-rw-r--r-- 1 felipe users         0 Nov 29 04:35 fort.62.pe44
-rw-r--r-- 1 felipe users         0 Nov 29 04:35 fort.62.pe45
-rw-r--r-- 1 felipe users         0 Nov 29 04:35 fort.62.pe46
-rw-r--r-- 1 felipe users         0 Nov 29 04:35 fort.62.pe47
-rw-r--r-- 1 felipe users         0 Nov 29 04:35 fort.62.pe48
-rw-r--r-- 1 felipe users         0 Nov 29 04:35 fort.62.pe49
-rw-r--r-- 1 felipe users         0 Nov 29 04:35 fort.62.pe50
-rw-r--r-- 1 felipe users         0 Nov 29 04:35 fort.62.pe51
-rw-r--r-- 1 felipe users         0 Nov 29 04:35 fort.62.pe52
-rw-r--r-- 1 felipe users         0 Nov 29 04:35 fort.62.pe53
-rw-r--r-- 1 felipe users         0 Nov 29 04:35 fort.62.pe54
-rw-r--r-- 1 felipe users         0 Nov 29 04:35 fort.62.pe55
-rw-r--r-- 1 felipe users         0 Nov 29 04:35 fort.62.pe56
-rw-r--r-- 1 felipe users         0 Nov 29 04:35 fort.62.pe57
-rw-r--r-- 1 felipe users         0 Nov 29 04:35 fort.62.pe58
-rw-r--r-- 1 felipe users         0 Nov 29 04:35 fort.62.pe59
-rw-r--r-- 1 felipe users         0 Nov 29 04:35 fort.62.pe60
-rw-r--r-- 1 felipe users         0 Nov 29 04:35 fort.62.pe61
-rw-r--r-- 1 felipe users         0 Nov 29 04:35 fort.62.pe62
-rw-r--r-- 1 felipe users         0 Nov 29 04:35 fort.62.pe63
-rw-r--r-- 1 felipe users         0 Nov 29 04:35 fort.75.pe00
-rw-r--r-- 1 felipe users         0 Nov 29 04:35 fort.75.pe01
-rw-r--r-- 1 felipe users         0 Nov 29 04:35 fort.75.pe02
-rw-r--r-- 1 felipe users         0 Nov 29 04:35 fort.75.pe03
-rw-r--r-- 1 felipe users         0 Nov 29 04:35 fort.75.pe04
-rw-r--r-- 1 felipe users         0 Nov 29 04:35 fort.75.pe05
-rw-r--r-- 1 felipe users         0 Nov 29 04:35 fort.75.pe06
-rw-r--r-- 1 felipe users         0 Nov 29 04:35 fort.75.pe07
-rw-r--r-- 1 felipe users         0 Nov 29 04:35 fort.75.pe08
-rw-r--r-- 1 felipe users         0 Nov 29 04:35 fort.75.pe09
-rw-r--r-- 1 felipe users         0 Nov 29 04:35 fort.75.pe10
-rw-r--r-- 1 felipe users         0 Nov 29 04:35 fort.75.pe11
-rw-r--r-- 1 felipe users         0 Nov 29 04:35 fort.75.pe12
-rw-r--r-- 1 felipe users         0 Nov 29 04:35 fort.75.pe13
-rw-r--r-- 1 felipe users         0 Nov 29 04:35 fort.75.pe14
-rw-r--r-- 1 felipe users         0 Nov 29 04:35 fort.75.pe15
-rw-r--r-- 1 felipe users         0 Nov 29 04:35 fort.75.pe16
-rw-r--r-- 1 felipe users         0 Nov 29 04:35 fort.75.pe17
-rw-r--r-- 1 felipe users         0 Nov 29 04:35 fort.75.pe18
-rw-r--r-- 1 felipe users         0 Nov 29 04:35 fort.75.pe19
-rw-r--r-- 1 felipe users         0 Nov 29 04:35 fort.75.pe20
-rw-r--r-- 1 felipe users         0 Nov 29 04:35 fort.75.pe21
-rw-r--r-- 1 felipe users         0 Nov 29 04:35 fort.75.pe22
-rw-r--r-- 1 felipe users         0 Nov 29 04:35 fort.75.pe23
-rw-r--r-- 1 felipe users         0 Nov 29 04:35 fort.75.pe24
-rw-r--r-- 1 felipe users         0 Nov 29 04:35 fort.75.pe25
-rw-r--r-- 1 felipe users         0 Nov 29 04:35 fort.75.pe26
-rw-r--r-- 1 felipe users         0 Nov 29 04:35 fort.75.pe27
-rw-r--r-- 1 felipe users         0 Nov 29 04:35 fort.75.pe28
-rw-r--r-- 1 felipe users         0 Nov 29 04:35 fort.75.pe29
-rw-r--r-- 1 felipe users         0 Nov 29 04:35 fort.75.pe30
-rw-r--r-- 1 felipe users         0 Nov 29 04:35 fort.75.pe31
-rw-r--r-- 1 felipe users         0 Nov 29 04:35 fort.75.pe32
-rw-r--r-- 1 felipe users         0 Nov 29 04:35 fort.75.pe33
-rw-r--r-- 1 felipe users         0 Nov 29 04:35 fort.75.pe34
-rw-r--r-- 1 felipe users         0 Nov 29 04:35 fort.75.pe35
-rw-r--r-- 1 felipe users         0 Nov 29 04:35 fort.75.pe36
-rw-r--r-- 1 felipe users         0 Nov 29 04:35 fort.75.pe37
-rw-r--r-- 1 felipe users         0 Nov 29 04:35 fort.75.pe38
-rw-r--r-- 1 felipe users         0 Nov 29 04:35 fort.75.pe39
-rw-r--r-- 1 felipe users         0 Nov 29 04:35 fort.75.pe40
-rw-r--r-- 1 felipe users         0 Nov 29 04:35 fort.75.pe41
-rw-r--r-- 1 felipe users         0 Nov 29 04:35 fort.75.pe42
-rw-r--r-- 1 felipe users         0 Nov 29 04:35 fort.75.pe43
-rw-r--r-- 1 felipe users         0 Nov 29 04:35 fort.75.pe44
-rw-r--r-- 1 felipe users         0 Nov 29 04:35 fort.75.pe45
-rw-r--r-- 1 felipe users         0 Nov 29 04:35 fort.75.pe46
-rw-r--r-- 1 felipe users         0 Nov 29 04:35 fort.75.pe47
-rw-r--r-- 1 felipe users         0 Nov 29 04:35 fort.75.pe48
-rw-r--r-- 1 felipe users         0 Nov 29 04:35 fort.75.pe49
-rw-r--r-- 1 felipe users         0 Nov 29 04:35 fort.75.pe50
-rw-r--r-- 1 felipe users         0 Nov 29 04:35 fort.75.pe51
-rw-r--r-- 1 felipe users         0 Nov 29 04:35 fort.75.pe52
-rw-r--r-- 1 felipe users         0 Nov 29 04:35 fort.75.pe53
-rw-r--r-- 1 felipe users         0 Nov 29 04:35 fort.75.pe54
-rw-r--r-- 1 felipe users         0 Nov 29 04:35 fort.75.pe55
-rw-r--r-- 1 felipe users         0 Nov 29 04:35 fort.75.pe56
-rw-r--r-- 1 felipe users         0 Nov 29 04:35 fort.75.pe57
-rw-r--r-- 1 felipe users         0 Nov 29 04:35 fort.75.pe58
-rw-r--r-- 1 felipe users         0 Nov 29 04:35 fort.75.pe59
-rw-r--r-- 1 felipe users         0 Nov 29 04:35 fort.75.pe60
-rw-r--r-- 1 felipe users         0 Nov 29 04:35 fort.75.pe61
-rw-r--r-- 1 felipe users         0 Nov 29 04:35 fort.75.pe62
-rw-r--r-- 1 felipe users         0 Nov 29 04:35 fort.75.pe63
-rw-r--r-- 1 felipe users         0 Nov 29 04:35 fort.77.pe00
-rw-r--r-- 1 felipe users         0 Nov 29 04:35 fort.77.pe01
-rw-r--r-- 1 felipe users         0 Nov 29 04:35 fort.77.pe02
-rw-r--r-- 1 felipe users         0 Nov 29 04:35 fort.77.pe03
-rw-r--r-- 1 felipe users         0 Nov 29 04:35 fort.77.pe04
-rw-r--r-- 1 felipe users         0 Nov 29 04:35 fort.77.pe05
-rw-r--r-- 1 felipe users         0 Nov 29 04:35 fort.77.pe06
-rw-r--r-- 1 felipe users         0 Nov 29 04:35 fort.77.pe07
-rw-r--r-- 1 felipe users         0 Nov 29 04:35 fort.77.pe08
-rw-r--r-- 1 felipe users         0 Nov 29 04:35 fort.77.pe09
-rw-r--r-- 1 felipe users         0 Nov 29 04:35 fort.77.pe10
-rw-r--r-- 1 felipe users         0 Nov 29 04:35 fort.77.pe11
-rw-r--r-- 1 felipe users         0 Nov 29 04:35 fort.77.pe12
-rw-r--r-- 1 felipe users         0 Nov 29 04:35 fort.77.pe13
-rw-r--r-- 1 felipe users         0 Nov 29 04:35 fort.77.pe14
-rw-r--r-- 1 felipe users         0 Nov 29 04:35 fort.77.pe15
-rw-r--r-- 1 felipe users         0 Nov 29 04:35 fort.77.pe16
-rw-r--r-- 1 felipe users         0 Nov 29 04:35 fort.77.pe17
-rw-r--r-- 1 felipe users         0 Nov 29 04:35 fort.77.pe18
-rw-r--r-- 1 felipe users         0 Nov 29 04:35 fort.77.pe19
-rw-r--r-- 1 felipe users         0 Nov 29 04:35 fort.77.pe20
-rw-r--r-- 1 felipe users         0 Nov 29 04:35 fort.77.pe21
-rw-r--r-- 1 felipe users         0 Nov 29 04:35 fort.77.pe22
-rw-r--r-- 1 felipe users         0 Nov 29 04:35 fort.77.pe23
-rw-r--r-- 1 felipe users         0 Nov 29 04:35 fort.77.pe24
-rw-r--r-- 1 felipe users         0 Nov 29 04:35 fort.77.pe25
-rw-r--r-- 1 felipe users         0 Nov 29 04:35 fort.77.pe26
-rw-r--r-- 1 felipe users         0 Nov 29 04:35 fort.77.pe27
-rw-r--r-- 1 felipe users         0 Nov 29 04:35 fort.77.pe28
-rw-r--r-- 1 felipe users         0 Nov 29 04:35 fort.77.pe29
-rw-r--r-- 1 felipe users         0 Nov 29 04:35 fort.77.pe30
-rw-r--r-- 1 felipe users         0 Nov 29 04:35 fort.77.pe31
-rw-r--r-- 1 felipe users         0 Nov 29 04:35 fort.77.pe32
-rw-r--r-- 1 felipe users         0 Nov 29 04:35 fort.77.pe33
-rw-r--r-- 1 felipe users         0 Nov 29 04:35 fort.77.pe34
-rw-r--r-- 1 felipe users         0 Nov 29 04:35 fort.77.pe35
-rw-r--r-- 1 felipe users         0 Nov 29 04:35 fort.77.pe36
-rw-r--r-- 1 felipe users         0 Nov 29 04:35 fort.77.pe37
-rw-r--r-- 1 felipe users         0 Nov 29 04:35 fort.77.pe38
-rw-r--r-- 1 felipe users         0 Nov 29 04:35 fort.77.pe39
-rw-r--r-- 1 felipe users         0 Nov 29 04:35 fort.77.pe40
-rw-r--r-- 1 felipe users         0 Nov 29 04:35 fort.77.pe41
-rw-r--r-- 1 felipe users         0 Nov 29 04:35 fort.77.pe42
-rw-r--r-- 1 felipe users         0 Nov 29 04:35 fort.77.pe43
-rw-r--r-- 1 felipe users         0 Nov 29 04:35 fort.77.pe44
-rw-r--r-- 1 felipe users         0 Nov 29 04:35 fort.77.pe45
-rw-r--r-- 1 felipe users         0 Nov 29 04:35 fort.77.pe46
-rw-r--r-- 1 felipe users         0 Nov 29 04:35 fort.77.pe47
-rw-r--r-- 1 felipe users         0 Nov 29 04:35 fort.77.pe48
-rw-r--r-- 1 felipe users         0 Nov 29 04:35 fort.77.pe49
-rw-r--r-- 1 felipe users         0 Nov 29 04:35 fort.77.pe50
-rw-r--r-- 1 felipe users         0 Nov 29 04:35 fort.77.pe51
-rw-r--r-- 1 felipe users         0 Nov 29 04:35 fort.77.pe52
-rw-r--r-- 1 felipe users         0 Nov 29 04:35 fort.77.pe53
-rw-r--r-- 1 felipe users         0 Nov 29 04:35 fort.77.pe54
-rw-r--r-- 1 felipe users         0 Nov 29 04:35 fort.77.pe55
-rw-r--r-- 1 felipe users         0 Nov 29 04:35 fort.77.pe56
-rw-r--r-- 1 felipe users         0 Nov 29 04:35 fort.77.pe57
-rw-r--r-- 1 felipe users         0 Nov 29 04:35 fort.77.pe58
-rw-r--r-- 1 felipe users         0 Nov 29 04:35 fort.77.pe59
-rw-r--r-- 1 felipe users         0 Nov 29 04:35 fort.77.pe60
-rw-r--r-- 1 felipe users         0 Nov 29 04:35 fort.77.pe61
-rw-r--r-- 1 felipe users         0 Nov 29 04:35 fort.77.pe62
-rw-r--r-- 1 felipe users         0 Nov 29 04:35 fort.77.pe63
-rw-r--r-- 1 felipe users         0 Nov 29 04:35 fort.8.pe00
-rw-r--r-- 1 felipe users         0 Nov 29 04:35 fort.8.pe01
-rw-r--r-- 1 felipe users         0 Nov 29 04:35 fort.8.pe02
-rw-r--r-- 1 felipe users         0 Nov 29 04:35 fort.8.pe03
-rw-r--r-- 1 felipe users         0 Nov 29 04:35 fort.8.pe04
-rw-r--r-- 1 felipe users         0 Nov 29 04:35 fort.8.pe05
-rw-r--r-- 1 felipe users         0 Nov 29 04:35 fort.8.pe06
-rw-r--r-- 1 felipe users         0 Nov 29 04:35 fort.8.pe07
-rw-r--r-- 1 felipe users         0 Nov 29 04:35 fort.8.pe08
-rw-r--r-- 1 felipe users         0 Nov 29 04:35 fort.8.pe09
-rw-r--r-- 1 felipe users         0 Nov 29 04:35 fort.8.pe10
-rw-r--r-- 1 felipe users         0 Nov 29 04:35 fort.8.pe11
-rw-r--r-- 1 felipe users         0 Nov 29 04:35 fort.8.pe12
-rw-r--r-- 1 felipe users         0 Nov 29 04:35 fort.8.pe13
-rw-r--r-- 1 felipe users         0 Nov 29 04:35 fort.8.pe14
-rw-r--r-- 1 felipe users         0 Nov 29 04:35 fort.8.pe15
-rw-r--r-- 1 felipe users         0 Nov 29 04:35 fort.8.pe16
-rw-r--r-- 1 felipe users         0 Nov 29 04:35 fort.8.pe17
-rw-r--r-- 1 felipe users         0 Nov 29 04:35 fort.8.pe18
-rw-r--r-- 1 felipe users         0 Nov 29 04:35 fort.8.pe19
-rw-r--r-- 1 felipe users         0 Nov 29 04:35 fort.8.pe20
-rw-r--r-- 1 felipe users         0 Nov 29 04:35 fort.8.pe21
-rw-r--r-- 1 felipe users         0 Nov 29 04:35 fort.8.pe22
-rw-r--r-- 1 felipe users         0 Nov 29 04:35 fort.8.pe23
-rw-r--r-- 1 felipe users         0 Nov 29 04:35 fort.8.pe24
-rw-r--r-- 1 felipe users         0 Nov 29 04:35 fort.8.pe25
-rw-r--r-- 1 felipe users         0 Nov 29 04:35 fort.8.pe26
-rw-r--r-- 1 felipe users         0 Nov 29 04:35 fort.8.pe27
-rw-r--r-- 1 felipe users         0 Nov 29 04:35 fort.8.pe28
-rw-r--r-- 1 felipe users         0 Nov 29 04:35 fort.8.pe29
-rw-r--r-- 1 felipe users         0 Nov 29 04:35 fort.8.pe30
-rw-r--r-- 1 felipe users         0 Nov 29 04:35 fort.8.pe31
-rw-r--r-- 1 felipe users         0 Nov 29 04:35 fort.8.pe32
-rw-r--r-- 1 felipe users         0 Nov 29 04:35 fort.8.pe33
-rw-r--r-- 1 felipe users         0 Nov 29 04:35 fort.8.pe34
-rw-r--r-- 1 felipe users         0 Nov 29 04:35 fort.8.pe35
-rw-r--r-- 1 felipe users         0 Nov 29 04:35 fort.8.pe36
-rw-r--r-- 1 felipe users         0 Nov 29 04:35 fort.8.pe37
-rw-r--r-- 1 felipe users         0 Nov 29 04:35 fort.8.pe38
-rw-r--r-- 1 felipe users         0 Nov 29 04:35 fort.8.pe39
-rw-r--r-- 1 felipe users         0 Nov 29 04:35 fort.8.pe40
-rw-r--r-- 1 felipe users         0 Nov 29 04:35 fort.8.pe41
-rw-r--r-- 1 felipe users         0 Nov 29 04:35 fort.8.pe42
-rw-r--r-- 1 felipe users         0 Nov 29 04:35 fort.8.pe43
-rw-r--r-- 1 felipe users         0 Nov 29 04:35 fort.8.pe44
-rw-r--r-- 1 felipe users         0 Nov 29 04:35 fort.8.pe45
-rw-r--r-- 1 felipe users         0 Nov 29 04:35 fort.8.pe46
-rw-r--r-- 1 felipe users         0 Nov 29 04:35 fort.8.pe47
-rw-r--r-- 1 felipe users         0 Nov 29 04:35 fort.8.pe48
-rw-r--r-- 1 felipe users         0 Nov 29 04:35 fort.8.pe49
-rw-r--r-- 1 felipe users         0 Nov 29 04:35 fort.8.pe50
-rw-r--r-- 1 felipe users         0 Nov 29 04:35 fort.8.pe51
-rw-r--r-- 1 felipe users         0 Nov 29 04:35 fort.8.pe52
-rw-r--r-- 1 felipe users         0 Nov 29 04:35 fort.8.pe53
-rw-r--r-- 1 felipe users         0 Nov 29 04:35 fort.8.pe54
-rw-r--r-- 1 felipe users         0 Nov 29 04:35 fort.8.pe55
-rw-r--r-- 1 felipe users 151519240 Nov 29 04:46 fort.8.pe56
-rw-r--r-- 1 felipe users 151519240 Nov 29 04:46 fort.8.pe57
-rw-r--r-- 1 felipe users 151519240 Nov 29 04:46 fort.8.pe58
-rw-r--r-- 1 felipe users 151519240 Nov 29 04:46 fort.8.pe59
-rw-r--r-- 1 felipe users 151519240 Nov 29 04:46 fort.8.pe60
-rw-r--r-- 1 felipe users 151519240 Nov 29 04:46 fort.8.pe61
-rw-r--r-- 1 felipe users 151519240 Nov 29 04:46 fort.8.pe62
-rw-r--r-- 1 felipe users 151519240 Nov 29 04:46 fort.8.pe63
-rw-r--r-- 1 felipe users  84114468 Nov 29 04:35 fort.9
-rw-r--r-- 1 felipe users 220251171 Nov 29 04:35 fort.98
-rw-r--r-- 1 felipe users       691 Nov 29 04:35 INPUT
-rwxr-xr-x 1 felipe users 104622352 Nov 29 04:35 Pproperties
file fort.98 saved as /home/felipe/Wide-Band-Gap/Ga2O3/18_HF/PRISTINE/GaO_PRISTINE_18HF_BAND_ERRATUM_DEF.f98
file fort.25 saved as /home/felipe/Wide-Band-Gap/Ga2O3/18_HF/PRISTINE/GaO_PRISTINE_18HF_BAND_ERRATUM_DEF.f25
file BAND.DAT saved as /home/felipe/Wide-Band-Gap/Ga2O3/18_HF/PRISTINE/GaO_PRISTINE_18HF_BAND_ERRATUM_DEF_dat.BAND
removing temporary directories /home/felipe/tmp/tmp_p174658_felipe from each node
