date Fri Nov 28 11:16:12 AM CET 2025
master hostname valdubon
master system Linux valdubon 6.4.0-150600.23.73-default #1 SMP PREEMPT_DYNAMIC Tue Oct 7 08:43:02 UTC 2025 (46f6a23) x86_64 x86_64 x86_64 GNU/Linux
user felipe
output data in /home/felipe/Wide-Band-Gap/Ga2O3/18_HF/TETRA/GaO_TETRA_18HF_BAND_ERRATUM_DEF.outp
mpirun executable in /home/felipe/openmpi-4.1.5/bin
file machines.LINUX in /home/felipe/CRYSTAL23/utils23
list of nodes in /home/felipe/CRYSTAL23/utils23/nodes.par
creating temporary directories /home/felipe/tmp/tmp_p64127_felipe on each node
copying input file on each node
scf guess from /home/felipe/Wide-Band-Gap/Ga2O3/18_HF/TETRA/GaO_TETRA_18HF.f9
copying Pproperties executable on each node
properties input data in /home/felipe/Wide-Band-Gap/Ga2O3/18_HF/TETRA/GaO_TETRA_18HF_BAND_ERRATUM_DEF.d3
NEWK
2 2
1 0
BAND
Ga2O3
15 120 112 979 1381  1 1
-38   82    0   -60   60    0   ! X1 -> Y
-60   60    0     0    0    0   ! Y  -> Γ
  0    0    0     0   60    0   ! Γ  -> N
  0   60    0    38   38    0   ! N  -> X
 38   38    0     0    0    0   ! X  -> Γ
  0    0    0     0   60   60   ! Γ  -> M
  0   60   60   -36   84   60   ! M  -> I
-36   84   60   -60   60   60   ! I  -> L
-60   60   60   -64   64   35   ! L  -> F
-64   64   35   -60   60    0   ! F  -> Y
-60   60    0     0    0    0   ! Y  -> Γ
  0    0    0     0    0   60   ! Γ  -> Z
  0    0   60   -56   56   85   ! Z  -> F1
-56   56   85     0    0   60   ! F1 -> Z
  0    0   60    36   36   60   ! Z  -> I1
END
copying input file on each node
wave function formatted data from /home/felipe/Wide-Band-Gap/Ga2O3/18_HF/TETRA/GaO_TETRA_18HF.f98
         128 PROCESSORS WORKING

         
 *******************************************************************************
 *                                                                             *
 *                               CRYSTAL23                                     *
 *                      public : 1.0.1 - October 2022                          *
 *                       HTTP://WWW.CRYSTAL.UNITO.IT                           *
 *                                                                             *
 *                              MAIN AUTHORS                                   *
 *                                                                             *
 *  R. DOVESI(1,11), V.R. SAUNDERS(2), C. ROETTI(1,11), R. ORLANDO(1,11),      *
 *  C.M. ZICOVICH-WILSON(1,3), F. PASCALE(4), B. CIVALLERI(1,11),              *
 *  K. DOLL(5), N.M. HARRISON(6), I.J. BUSH(7), Ph. D'ARCO(8),                 *
 *  M. LLUNELL(9), M. CAUSA'(10), Y. NOEL(8), L. MASCHIO(1,11), A. ERBA(1,11)  *
 *  M. RE'RAT(14), S. CASASSA(1,11), B.G. SEARLE(2), J.K. DESMARAIS(1)         *
 *                                                                             *
 *        CONTRIBUTIONS TO THE CODE HAVE ALSO BEEN GIVEN BY                    *
 *                                                                             *
 *  M. FERRABONE(1,11), M. DE LA PIERRE(1,11), M. FERRERO(1,11),               *
 *  J. BAIMA(1,11), E. ALBANESE(1,11), M.F. PEINTINGER(12), R. BAST(13),       *
 *  B. KIRTMAN(15), V. LACIVITA(1,11), R. DEMICHELIS(1,16)                     *
 *  G. BRANDEBURG(17), S. SALUSTRO(1,11), G. SANSONE(1,11)                     *
 *  M.T. RUGGIERO(18), L.E. DAGA(1), L. DONA'(1), A. COSSARD(1)                *
 *                                                                             *
 * (1) THEORETICAL CHEMISTRY GROUP - UNIVERSITA' DI TORINO - TORINO (ITALY)    *
 * (2) SCIENTIFIC COMPUTING DEPARTMENT - STFC DARESBURY (UK)                   *
 * (3) UNIVERSIDAD AUTONOMA DEL ESTADO DE MORELOS - CUERNAVACA (MEXICO)        *
 * (4) UNIVERSITE' DE LORRAINE - NANCY (FRANCE)                                *
 * (5) UNIVERSITAET STUTTGART- STUTTGART (GERMANY)                             *
 * (6) IMPERIAL COLLEGE - LONDON (UK)                                          *
 * (7) SCIENTIFIC COMPUTING DEPARTMENT - STFC RAL (UK)                         *
 * (8) UPMC - SORBONNE UNIVERSITES - PARIS (FRANCE)                            *
 * (9) UNIVERSIDAD DE BARCELONA - BARCELONA (SPAIN)                            *
 *(10) UNIVERSITA' DI NAPOLI "FEDERICO II" - NAPOLI (ITALY)                    *
 *(11) NIS - NANOSTRUCTURED INTERFACES AND SURFACES - TORINO (ITALY)           *
 *(12) MPI FUER CHEMISCHE ENERGIEKONVERSION - MUELHEIM AN DER RUHR (GERMANY)   *
 *(13) UNIVERSITY OF TROMSO - TROMSO (NORWAY)                                  *
 *(14) UNIVERSITE' DE PAU ET DES PAYS DE L'ADOUR - PAU (FRANCE)                *
 *(15) UNIVERSITY OF CALIFORNIA SANTA BARBARA - SANTA BARBARA (USA)            *
 *(16) CURTIN UNIVERSITY - PERTH (AUSTRALIA)                                   *
 *(17) UNIVERSITY COLLEGE LONDON - LONDON (UK)                                 *
 *(18) UNIVERSITY OF VERMONT - BURLINGTON (USA)                                *
 *                                                                             *
 *******************************************************************************
 EEEEEEEEEE STARTING  DATE 28 11 2025 TIME 11:16:18.8
 INFORMATION **** SET_MPP **** PCRYSTAL CALCULATION

 *******************************************************************************
 β-Ga₂O₃  2×2×2 super-cell  –  neutral VGa(tet)  –  HSE06  –  spin p
 CRYSTAL - PROPERTIES - TYPE OF CALCULATION :  UNRESTRICTED OPEN SHELL
 *******************************************************************************
 SPIN POLARIZED SYSTEM: SUMMED SPIN DENSITY    3.00000000

 KOHN-SHAM HAMILTONIAN

 (EXCHANGE)[CORRELATION] FUNCTIONAL:(HSE06 SR/GGA)[PERDEW-BURKE-ERNZERHOF]

 RANGE-SEPARATED HYBRID FUNCTIONAL 
 OMEGA (SHORT-RANGE)[LONG-RANGE]:(    0.1100)[    0.0000]

 HYBRID EXCHANGE - PERCENTAGE OF FOCK EXCHANGE    18.0000

 SPIN POLARIZED DFT SELECTED

 DIRECT LATTICE VECTOR COMPONENTS (ANGSTROM)
        24.66382   -0.00018    0.00000
         0.00000    6.12192    0.00000
        -2.78185    0.00022   11.31861

 LATTICE PARAMETERS  (ANGSTROM AND DEGREES) - PRIMITIVE CELL
       A          B          C         ALPHA      BETA     GAMMA        VOLUME
   24.66382    6.12192   11.65546     89.9989  103.8083   90.0004    1708.99672
 *******************************************************************************
 N. OF ATOMS PER CELL       160 COULOMB OVERLAP TOL          (T1) 10**   -7
 NUMBER OF SHELLS          1728 COULOMB PENETRATION TOL      (T2) 10**   -7
 NUMBER OF AO              4352 EXCHANGE OVERLAP TOL         (T3) 10**   -7
 N. OF ELECTRONS PER CELL  2721 EXCHANGE PSEUDO OVP (F(G))   (T4) 10**   -7
 CORE ELECTRONS PER CELL   1956 EXCHANGE PSEUDO OVP (P(G))   (T5) 10**  -14
 N. OF SYMMETRY OPERATORS     1 POLE ORDER IN MONO ZONE                   4
 *******************************************************************************
   ATOM N.AT.  SHELL    X(A)      Y(A)      Z(A)      EXAD       N.ELECT.
 *******************************************************************************
    1   31 GA   15    -4.663    -1.530    -1.156   2.831E-01      29.207
    2   31 GA   15    -3.383    -1.531    -6.777   2.831E-01      29.281
    3    0 XX   15    -4.740     1.544    -1.198   2.831E-01      -0.076
    4   31 GA   15    -6.175     1.530     4.476   2.831E-01      29.283
    5   31 GA   15     7.558    -1.531    -1.162   2.831E-01      29.270
    6   31 GA   15     6.178    -1.531     4.497   2.831E-01      29.269
    7   31 GA   15     7.558     1.530    -1.162   2.831E-01      29.270
    8   31 GA   15     6.177     1.530     4.496   2.831E-01      29.269
    9   31 GA   15     1.399     0.017    -1.171   2.831E-01      29.273
   10   31 GA   15     0.026     0.001     4.495   2.831E-01      29.270
   11   31 GA   15     1.399     3.044    -1.171   2.831E-01      29.273
   12   31 GA   15     0.026     3.060     4.495   2.831E-01      29.270
   13   31 GA   15   -10.963     0.001    -1.155   2.831E-01      29.270
   14   31 GA   15    -9.555     0.000    -6.830   2.831E-01      29.273
   15   31 GA   15   -10.963     3.060    -1.155   2.831E-01      29.270
   16   31 GA   15    -9.555     3.060    -6.830   2.831E-01      29.273
   17   31 GA   15     4.769     1.530     1.159   2.831E-01      29.271
   18   31 GA   15     3.376     1.530     6.819   2.831E-01      29.269
   19   31 GA   15     4.770    -1.531     1.157   2.831E-01      29.272
   20   31 GA   15     3.374    -1.531     6.818   2.831E-01      29.269
   21   31 GA   15    -7.585     1.530     1.130   2.831E-01      29.261
   22   31 GA   15    -6.157     1.530    -4.420   2.831E-01      29.248
   23   31 GA   15    -7.576    -1.531     1.155   2.831E-01      29.286
   24   31 GA   15    -6.189    -1.531    -4.464   2.831E-01      29.268
   25   31 GA   15    -1.368    -0.005     1.156   2.831E-01      29.283
   26   31 GA   15     0.018    -0.004    -4.498   2.831E-01      29.270
   27   31 GA   15    -1.368    -3.056     1.156   2.831E-01      29.283
   28   31 GA   15     0.018    -3.057    -4.498   2.831E-01      29.270
   29   31 GA   15    10.931    -0.000     1.165   2.831E-01      29.272
   30   31 GA   15     9.512     0.000     6.816   2.831E-01      29.269
   31   31 GA   15    10.931     3.061     1.165   2.831E-01      29.272
   32   31 GA   15     9.512     3.060     6.816   2.831E-01      29.269
   33   31 GA   15    -4.659    -0.024     1.821   2.831E-01      29.309
   34   31 GA   15    -3.239     0.047    -3.810   2.831E-01      29.307
   35   31 GA   15    -4.659    -3.038     1.821   2.831E-01      29.309
   36   31 GA   15    -3.239     3.013    -3.810   2.831E-01      29.307
   37   31 GA   15     7.681    -0.000     1.774   2.831E-01      29.302
   38   31 GA   15     6.285    -0.000     7.438   2.831E-01      29.301
   39   31 GA   15     7.681     3.061     1.774   2.831E-01      29.302
   40   31 GA   15     6.285    -3.061     7.438   2.831E-01      29.301
   41   31 GA   15     1.531     1.530     1.777   2.831E-01      29.304
   42   31 GA   15     2.924     1.530    -3.886   2.831E-01      29.305
   43   31 GA   15     1.537    -1.531     1.769   2.831E-01      29.302
   44   31 GA   15     2.927    -1.531    -3.885   2.831E-01      29.301
   45   31 GA   15   -10.811     1.531     1.785   2.831E-01      29.307
   46   31 GA   15    -9.462     1.530    -3.895   2.831E-01      29.307
   47   31 GA   15   -10.810    -1.530     1.784   2.831E-01      29.306
   48   31 GA   15    -9.465    -1.531    -3.896   2.831E-01      29.306
   49   31 GA   15     4.645     0.001    -1.782   2.831E-01      29.303
   50   31 GA   15     3.264     0.001     3.876   2.831E-01      29.303
   51   31 GA   15     4.645     3.060    -1.782   2.831E-01      29.303
   52   31 GA   15     3.264     3.060     3.876   2.831E-01      29.303
   53   31 GA   15    -7.755     0.003    -1.807   2.831E-01      29.302
   54   31 GA   15    -6.285     0.003    -7.423   2.831E-01      29.309
   55   31 GA   15    -7.755     3.058    -1.807   2.831E-01      29.301
   56   31 GA   15    -6.285     3.057    -7.422   2.831E-01      29.309
   57   31 GA   15    -1.605     1.530    -1.762   2.831E-01      29.291
   58   31 GA   15    -2.896     1.531     3.886   2.831E-01      29.309
   59   31 GA   15    -1.458    -1.530    -1.809   2.831E-01      29.319
   60   31 GA   15    -2.888    -1.530     3.889   2.831E-01      29.313
   61   31 GA   15    10.793     1.530    -1.778   2.831E-01      29.302
   62   31 GA   15     9.413     1.530     3.872   2.831E-01      29.304
   63   31 GA   15    10.794    -1.531    -1.778   2.831E-01      29.303
   64   31 GA   15     9.413    -1.531     3.872   2.831E-01      29.303
   65    8 O     8    -5.800    -0.026    -1.454   4.535E-01       8.619
   66    8 O     8    -7.145    -0.010     4.149   4.535E-01       9.097
   67    8 O     8    -5.800    -3.034    -1.454   4.535E-01       8.619
   68    8 O     8    -7.145    -3.051     4.149   4.535E-01       9.097
   69    8 O     8     6.572    -0.000    -1.454   4.535E-01       9.088
   70    8 O     8     5.190    -0.000     4.205   4.535E-01       9.088
   71    8 O     8     6.572     3.061    -1.454   4.535E-01       9.088
   72    8 O     8     5.190    -3.061     4.205   4.535E-01       9.088
   73    8 O     8     0.451    -1.531    -1.452   4.535E-01       9.100
   74    8 O     8    -0.971    -1.531     4.198   4.535E-01       9.090
   75    8 O     8     0.388     1.530    -1.463   4.535E-01       9.073
   76    8 O     8    -0.973     1.530     4.203   4.535E-01       9.088
   77    8 O     8   -11.948    -1.530    -1.444   4.535E-01       9.087
   78    8 O     8    11.342    -1.531     4.195   4.535E-01       9.088
   79    8 O     8   -11.949     1.530    -1.445   4.535E-01       9.087
   80    8 O     8    11.340     1.530     4.195   4.535E-01       9.086
   81    8 O     8     5.763    -0.000     1.450   4.535E-01       9.089
   82    8 O     8     7.152    -0.001    -4.209   4.535E-01       9.090
   83    8 O     8     5.763     3.061     1.450   4.535E-01       9.089
   84    8 O     8     7.152    -3.061    -4.209   4.535E-01       9.090
   85    8 O     8    -6.555     0.009     1.355   4.535E-01       9.081
   86    8 O     8    -5.237    -0.015    -4.026   4.535E-01       9.079
   87    8 O     8    -6.555     3.052     1.355   4.535E-01       9.081
   88    8 O     8    -5.237    -3.046    -4.025   4.535E-01       9.080
   89    8 O     8    -0.395     1.531     1.477   4.535E-01       9.089
   90    8 O     8     1.013     1.530    -4.240   4.535E-01       9.087
   91    8 O     8    -0.387    -1.530     1.485   4.535E-01       9.091
   92    8 O     8     1.029    -1.531    -4.245   4.535E-01       9.086
   93    8 O     8    11.928     1.530     1.461   4.535E-01       9.089
   94    8 O     8   -11.377     1.530    -4.213   4.535E-01       9.089
   95    8 O     8    11.929    -1.531     1.462   4.535E-01       9.089
   96    8 O     8   -11.379    -1.531    -4.214   4.535E-01       9.090
   97    8 O     8    -4.209     1.530     0.663   4.535E-01       8.582
   98    8 O     8    -2.947     1.530    -5.090   4.535E-01       9.087
   99    8 O     8    -4.334    -1.531     0.638   4.535E-01       9.090
  100    8 O     8    -3.004    -1.531    -4.994   4.535E-01       9.084
  101    8 O     8     8.038     1.530     0.617   4.535E-01       9.110
  102    8 O     8     6.651     1.530     6.280   4.535E-01       9.114
  103    8 O     8     8.038    -1.531     0.617   4.535E-01       9.110
  104    8 O     8     6.652    -1.531     6.280   4.535E-01       9.114
  105    8 O     8     1.879     0.005     0.615   4.535E-01       9.111
  106    8 O     8     3.295     0.001    -5.048   4.535E-01       9.112
  107    8 O     8     1.879     3.056     0.616   4.535E-01       9.111
  108    8 O     8     3.295     3.060    -5.048   4.535E-01       9.112
  109    8 O     8   -10.469     0.000     0.623   4.535E-01       9.110
  110    8 O     8    -9.097     0.001    -5.047   4.535E-01       9.107
  111    8 O     8   -10.469     3.061     0.623   4.535E-01       9.110
  112    8 O     8    -9.097     3.060    -5.047   4.535E-01       9.107
  113    8 O     8     4.304     1.530    -0.621   4.535E-01       9.107
  114    8 O     8     2.921     1.530     5.036   4.535E-01       9.107
  115    8 O     8     4.304    -1.531    -0.623   4.535E-01       9.106
  116    8 O     8     2.920    -1.530     5.034   4.535E-01       9.108
  117    8 O     8    -8.091     1.530    -0.636   4.535E-01       9.099
  118    8 O     8    -6.574     1.530    -6.232   4.535E-01       9.097
  119    8 O     8    -8.063    -1.530    -0.624   4.535E-01       9.088
  120    8 O     8    -6.604    -1.531    -6.258   4.535E-01       9.108
  121    8 O     8    -1.827    -0.025    -0.612   4.535E-01       9.093
  122    8 O     8    -3.249    -0.003     5.030   4.535E-01       9.109
  123    8 O     8    -1.827    -3.036    -0.613   4.535E-01       9.094
  124    8 O     8    -3.249    -3.058     5.030   4.535E-01       9.109
  125    8 O     8    10.457    -0.000    -0.614   4.535E-01       9.108
  126    8 O     8     9.064    -0.000     5.031   4.535E-01       9.109
  127    8 O     8    10.457    -3.061    -0.614   4.535E-01       9.108
  128    8 O     8     9.064     3.061     5.031   4.535E-01       9.109
  129    8 O     8    -3.323     1.530    -2.574   4.535E-01       9.232
  130    8 O     8    -4.816     1.531     3.177   4.535E-01       9.232
  131    8 O     8    -3.381    -1.531    -2.453   4.535E-01       9.238
  132    8 O     8    -4.818    -1.530     3.202   4.535E-01       9.220
  133    8 O     8     8.907     1.530    -2.472   4.535E-01       9.230
  134    8 O     8     7.523     1.530     3.182   4.535E-01       9.229
  135    8 O     8     8.907    -1.530    -2.472   4.535E-01       9.230
  136    8 O     8     7.524    -1.531     3.182   4.535E-01       9.229
  137    8 O     8     2.759     0.007    -2.480   4.535E-01       9.229
  138    8 O     8     1.373     0.001     3.186   4.535E-01       9.228
  139    8 O     8     2.759     3.054    -2.479   4.535E-01       9.229
  140    8 O     8     1.373     3.060     3.186   4.535E-01       9.228
  141    8 O     8    -9.633    -0.001    -2.482   4.535E-01       9.230
  142    8 O     8   -10.961     0.003     3.205   4.535E-01       9.226
  143    8 O     8    -9.633    -3.060    -2.482   4.535E-01       9.230
  144    8 O     8   -10.961     3.058     3.205   4.535E-01       9.226
  145    8 O     8     3.430     1.530     2.473   4.535E-01       9.229
  146    8 O     8     4.821     1.530    -3.186   4.535E-01       9.229
  147    8 O     8     3.428    -1.531     2.469   4.535E-01       9.229
  148    8 O     8     4.817    -1.531    -3.186   4.535E-01       9.230
  149    8 O     8    -8.908     1.531     2.470   4.535E-01       9.223
  150    8 O     8    -7.576     1.530    -3.181   4.535E-01       9.222
  151    8 O     8    -8.911    -1.531     2.468   4.535E-01       9.223
  152    8 O     8    -7.586    -1.531    -3.195   4.535E-01       9.223
  153    8 O     8    -2.751     0.010     2.453   4.535E-01       9.216
  154    8 O     8    -1.304    -0.050    -3.202   4.535E-01       9.224
  155    8 O     8    -2.751     3.051     2.453   4.535E-01       9.216
  156    8 O     8    -1.304    -3.011    -3.202   4.535E-01       9.224
  157    8 O     8     9.583    -0.000     2.470   4.535E-01       9.229
  158    8 O     8    10.961    -0.000    -3.182   4.535E-01       9.229
  159    8 O     8     9.583    -3.061     2.470   4.535E-01       9.229
  160    8 O     8    10.961     3.060    -3.182   4.535E-01       9.229
 *******************************************************************************
 DE(K)                   0.000E+00  ENERGY LEVEL SHIFTING        0.00000
 TOTAL ENERGY -1.2847530581687E+05  CONVERGENCE ON ENER       -1.386E-06
 KIN. ENERGY   1.2830158215913E+05  VIR. COEFF.           1.01754194E+00
 N. OF SCF CYCLES               19  FERMI ENERGY              -0.100E+01
 WEIGHT OF F(I) IN F(I+1)      30
 SHRINK. FACT.(MONKH.)     2  2  2  SHRINKING FACTOR(GILAT NET)        2
 NUMBER OF K POINTS IN THE IBZ   8  CELL VOLUME (A.U.)      11532.881714
 *******************************************************************************

 GCALCO - MAX INDICES DIRECT LATTICE VECTOR     7    29    15
 NO.OF VECTORS CREATED 6999 STARS 3500 RMAX   268.48676 BOHR
 TTTTTTTTTTTTTTTTTTTTTTTTTTTTTT gordsh1     TELAPSE        3.23 TCPU        1.36

 MATRIX SIZE: P(G)10867308, F(G) 1872566, P(G) IRR 5447350, F(G) IRR 1878870
 MAX G-VECTOR INDEX FOR 1- AND 2-ELECTRON INTEGRALS  85


 CAPPA:IS1  2;IS2  2;IS3  2; K PTS MONK NET   8; SYMMOPS:K SPACE   2;G SPACE   1


 CAPPA:IS1  2;IS2  2;IS3  2; K PTS MONK NET   8; SYMMOPS:K SPACE   2;G SPACE   1

 *******************************************************************************
 RESTART WITH NEW K POINTS NET
 *******************************************************************************
 POINTS IN THE IBZ                   8 POINTS(GILAT NET)                 8
 SHRINK FACTORS(MONK.)         2  2  2 SHRINK FACTOR(GILAT)              2
 *******************************************************************************
 *** K POINTS COORDINATES (OBLIQUE COORDINATES IN UNITS OF IS =  2)
   1-R(  0  0  0)   2-R(  1  0  0)   3-R(  0  1  0)   4-R(  1  1  0)
   5-R(  0  0  1)   6-R(  1  0  1)   7-R(  0  1  1)   8-R(  1  1  1)

 FERMI ENERGY AND DENSITY MATRIX CALCULATION ON COMPUTED EIGENVECTORS
 DENSITY MATRIX AT SCF CYCLE ( 19+1)

 SPIN LOCKING: NO ENERGY GAP COMPUTED

 CORE DENSITY MATRIX CALCULATION
 TTTTTTTTTTTTTTTTTTTTTTTTTTTTTT NEWK        TELAPSE      642.44 TCPU      640.33


 *******************************************************************************
 *                                                                             *
 *  BAND STRUCTURE                                                             *
 *  Ga2O3                                                                      *
 *  FROM BAND 979 TO BAND1381                                                  *
 *  TOTAL OF 112 K-POINTS ALONG THE PATH                                       *
 *                                                                             *
 *******************************************************************************

 LINE  1 (-0.32 0.68 0.00:-0.50 0.50 0.00) IN TERMS OF PRIMITIVE LATTICE VECTORS
   5 POINTS - SHRINKING_FACTOR 480
 CARTESIAN COORD. (-0.043 0.371-0.010):(-0.067 0.272-0.017) STEP  0.0257


    ALPHA      ELECTRONS

   1(***/480328/480  0/480)
                -7.398E-01 -7.397E-01 -7.395E-01 -7.394E-01 -7.393E-01 -7.392E-01 -7.391E-01 -7.390E-01 -7.389E-01 -7.387E-01
                -7.387E-01 -7.386E-01 -7.384E-01 -7.382E-01 -7.382E-01 -7.379E-01 -7.377E-01 -7.373E-01 -7.371E-01 -7.368E-01
                -7.365E-01 -7.359E-01 -7.357E-01 -7.353E-01 -7.351E-01 -7.348E-01 -7.336E-01 -7.335E-01 -7.332E-01 -7.330E-01
                -7.326E-01 -7.322E-01 -7.317E-01 -7.313E-01 -7.310E-01 -7.304E-01 -7.301E-01 -7.299E-01 -7.298E-01 -7.294E-01
                -7.290E-01 -7.285E-01 -7.284E-01 -7.278E-01 -7.276E-01 -7.273E-01 -7.270E-01 -7.266E-01 -7.263E-01 -7.260E-01
                -7.258E-01 -7.256E-01 -7.254E-01 -7.249E-01 -7.248E-01 -7.246E-01 -7.241E-01 -7.235E-01 -7.232E-01 -7.228E-01
                -7.223E-01 -7.221E-01 -7.216E-01 -7.214E-01 -7.211E-01 -7.206E-01 -7.198E-01 -7.196E-01 -7.191E-01 -7.189E-01
                -7.184E-01 -7.170E-01 -7.164E-01 -7.161E-01 -7.159E-01 -7.156E-01 -7.148E-01 -7.146E-01 -7.142E-01 -7.136E-01
                -7.125E-01 -7.122E-01 -7.117E-01 -7.113E-01 -7.112E-01 -7.106E-01 -7.094E-01 -7.086E-01 -7.085E-01 -7.074E-01
                -7.063E-01 -7.056E-01 -7.055E-01 -7.018E-01 -6.992E-01 -6.907E-01 -4.648E-01 -4.621E-01 -4.607E-01 -4.582E-01
                -4.569E-01 -4.536E-01 -4.485E-01 -4.473E-01 -4.449E-01 -4.431E-01 -4.409E-01 -4.390E-01 -4.381E-01 -4.374E-01
                -4.368E-01 -4.360E-01 -4.345E-01 -4.344E-01 -4.338E-01 -4.325E-01 -4.320E-01 -4.311E-01 -4.302E-01 -4.286E-01
                -4.277E-01 -4.266E-01 -4.260E-01 -4.251E-01 -4.238E-01 -4.223E-01 -4.208E-01 -4.188E-01 -4.179E-01 -4.157E-01
                -4.130E-01 -4.108E-01 -4.099E-01 -4.081E-01 -4.074E-01 -4.059E-01 -4.047E-01 -4.044E-01 -4.037E-01 -4.025E-01
                -4.015E-01 -4.006E-01 -4.002E-01 -3.979E-01 -3.969E-01 -3.962E-01 -3.950E-01 -3.933E-01 -3.905E-01 -3.889E-01
                -3.883E-01 -3.870E-01 -3.852E-01 -3.847E-01 -3.806E-01 -3.798E-01 -3.784E-01 -3.773E-01 -3.768E-01 -3.763E-01
                -3.743E-01 -3.726E-01 -3.719E-01 -3.710E-01 -3.706E-01 -3.694E-01 -3.691E-01 -3.677E-01 -3.651E-01 -3.647E-01
                -3.637E-01 -3.621E-01 -3.594E-01 -3.591E-01 -3.583E-01 -3.567E-01 -3.553E-01 -3.548E-01 -3.537E-01 -3.520E-01
                -3.507E-01 -3.503E-01 -3.498E-01 -3.496E-01 -3.483E-01 -3.476E-01 -3.472E-01 -3.467E-01 -3.463E-01 -3.455E-01
                -3.447E-01 -3.436E-01 -3.432E-01 -3.427E-01 -3.417E-01 -3.405E-01 -3.401E-01 -3.394E-01 -3.386E-01 -3.379E-01
                -3.369E-01 -3.362E-01 -3.358E-01 -3.349E-01 -3.336E-01 -3.330E-01 -3.325E-01 -3.310E-01 -3.290E-01 -3.284E-01
                -3.275E-01 -3.271E-01 -3.256E-01 -3.243E-01 -3.237E-01 -3.223E-01 -3.217E-01 -3.207E-01 -3.203E-01 -3.194E-01
                -3.187E-01 -3.176E-01 -3.163E-01 -3.156E-01 -3.141E-01 -3.136E-01 -3.128E-01 -3.122E-01 -3.119E-01 -3.113E-01
                -3.107E-01 -3.101E-01 -3.093E-01 -3.087E-01 -3.083E-01 -3.071E-01 -3.067E-01 -3.062E-01 -3.057E-01 -3.052E-01
                -3.043E-01 -3.040E-01 -3.026E-01 -3.022E-01 -3.019E-01 -3.012E-01 -3.007E-01 -2.998E-01 -2.992E-01 -2.979E-01
                -2.974E-01 -2.965E-01 -2.959E-01 -2.952E-01 -2.939E-01 -2.935E-01 -2.925E-01 -2.916E-01 -2.912E-01 -2.907E-01
                -2.901E-01 -2.890E-01 -2.882E-01 -2.879E-01 -2.876E-01 -2.871E-01 -2.861E-01 -2.853E-01 -2.842E-01 -2.838E-01
                -2.836E-01 -2.828E-01 -2.824E-01 -2.800E-01 -2.787E-01 -2.781E-01 -2.775E-01 -2.766E-01 -2.756E-01 -2.744E-01
                -2.728E-01 -2.720E-01 -2.707E-01 -2.693E-01 -2.692E-01 -2.682E-01 -2.677E-01 -2.670E-01 -2.661E-01 -2.654E-01
                -2.647E-01 -2.641E-01 -2.630E-01 -2.624E-01 -2.620E-01 -2.616E-01 -2.610E-01 -2.602E-01 -2.597E-01 -2.589E-01
                -2.581E-01 -2.578E-01 -2.573E-01 -2.567E-01 -2.554E-01 -2.551E-01 -2.546E-01 -2.540E-01 -2.535E-01 -2.533E-01
                -2.528E-01 -2.527E-01 -2.521E-01 -2.511E-01 -2.505E-01 -2.501E-01 -2.494E-01 -2.484E-01 -2.481E-01 -2.478E-01
                -2.474E-01 -2.470E-01 -2.467E-01 -2.460E-01 -2.455E-01 -2.449E-01 -2.443E-01 -2.440E-01 -2.432E-01 -2.429E-01
                -2.427E-01 -2.426E-01 -2.420E-01 -2.415E-01 -2.412E-01 -2.404E-01 -2.401E-01 -2.397E-01 -2.390E-01 -2.380E-01
                -2.377E-01 -2.376E-01 -2.371E-01 -2.368E-01 -2.362E-01 -2.355E-01 -2.350E-01 -2.344E-01 -2.337E-01 -2.336E-01
                -2.328E-01 -2.322E-01 -2.316E-01 -2.311E-01 -2.305E-01 -2.296E-01 -2.291E-01 -2.287E-01 -2.281E-01 -2.272E-01
                -2.263E-01 -2.260E-01 -2.257E-01 -2.251E-01 -2.240E-01 -2.238E-01 -2.228E-01 -2.220E-01 -2.212E-01 -2.200E-01
                -2.189E-01 -2.183E-01 -2.159E-01 -2.148E-01 -2.147E-01 -2.137E-01 -2.135E-01 -2.109E-01 -2.101E-01 -2.096E-01
                -2.072E-01 -2.061E-01 -2.037E-01 -1.901E-01 -2.350E-02 -1.566E-02  3.069E-03  1.748E-02  3.858E-02  3.993E-02
                 4.362E-02  4.698E-02  5.030E-02  5.356E-02  5.463E-02  5.556E-02  5.735E-02  5.826E-02  6.185E-02  6.400E-02
                 6.623E-02  6.708E-02  6.823E-02

   2(***/480306/480  0/480)
                -7.401E-01 -7.399E-01 -7.398E-01 -7.396E-01 -7.394E-01 -7.394E-01 -7.392E-01 -7.391E-01 -7.390E-01 -7.389E-01
                -7.387E-01 -7.385E-01 -7.384E-01 -7.382E-01 -7.382E-01 -7.379E-01 -7.377E-01 -7.374E-01 -7.370E-01 -7.368E-01
                -7.364E-01 -7.360E-01 -7.357E-01 -7.353E-01 -7.346E-01 -7.341E-01 -7.339E-01 -7.336E-01 -7.332E-01 -7.326E-01
                -7.323E-01 -7.320E-01 -7.312E-01 -7.311E-01 -7.305E-01 -7.303E-01 -7.301E-01 -7.300E-01 -7.291E-01 -7.289E-01
                -7.286E-01 -7.283E-01 -7.279E-01 -7.276E-01 -7.274E-01 -7.270E-01 -7.267E-01 -7.263E-01 -7.262E-01 -7.260E-01
                -7.256E-01 -7.253E-01 -7.251E-01 -7.249E-01 -7.245E-01 -7.241E-01 -7.238E-01 -7.236E-01 -7.233E-01 -7.228E-01
                -7.226E-01 -7.222E-01 -7.221E-01 -7.215E-01 -7.213E-01 -7.209E-01 -7.206E-01 -7.195E-01 -7.190E-01 -7.185E-01
                -7.181E-01 -7.180E-01 -7.173E-01 -7.165E-01 -7.165E-01 -7.158E-01 -7.149E-01 -7.143E-01 -7.142E-01 -7.139E-01
                -7.131E-01 -7.128E-01 -7.120E-01 -7.114E-01 -7.112E-01 -7.105E-01 -7.094E-01 -7.092E-01 -7.087E-01 -7.078E-01
                -7.068E-01 -7.056E-01 -7.051E-01 -7.026E-01 -7.000E-01 -6.916E-01 -4.634E-01 -4.609E-01 -4.591E-01 -4.576E-01
                -4.553E-01 -4.532E-01 -4.479E-01 -4.454E-01 -4.437E-01 -4.407E-01 -4.392E-01 -4.384E-01 -4.367E-01 -4.359E-01
                -4.351E-01 -4.346E-01 -4.340E-01 -4.325E-01 -4.315E-01 -4.311E-01 -4.301E-01 -4.298E-01 -4.282E-01 -4.274E-01
                -4.259E-01 -4.247E-01 -4.241E-01 -4.227E-01 -4.221E-01 -4.212E-01 -4.191E-01 -4.175E-01 -4.167E-01 -4.133E-01
                -4.121E-01 -4.106E-01 -4.092E-01 -4.079E-01 -4.062E-01 -4.049E-01 -4.027E-01 -4.011E-01 -4.003E-01 -3.999E-01
                -3.981E-01 -3.976E-01 -3.970E-01 -3.962E-01 -3.947E-01 -3.938E-01 -3.927E-01 -3.917E-01 -3.891E-01 -3.877E-01
                -3.866E-01 -3.847E-01 -3.840E-01 -3.836E-01 -3.816E-01 -3.782E-01 -3.777E-01 -3.759E-01 -3.754E-01 -3.752E-01
                -3.747E-01 -3.725E-01 -3.716E-01 -3.707E-01 -3.701E-01 -3.693E-01 -3.681E-01 -3.675E-01 -3.661E-01 -3.647E-01
                -3.626E-01 -3.611E-01 -3.598E-01 -3.587E-01 -3.577E-01 -3.569E-01 -3.560E-01 -3.555E-01 -3.552E-01 -3.547E-01
                -3.536E-01 -3.531E-01 -3.525E-01 -3.514E-01 -3.509E-01 -3.502E-01 -3.489E-01 -3.487E-01 -3.472E-01 -3.464E-01
                -3.455E-01 -3.451E-01 -3.440E-01 -3.433E-01 -3.430E-01 -3.417E-01 -3.411E-01 -3.402E-01 -3.397E-01 -3.383E-01
                -3.374E-01 -3.368E-01 -3.364E-01 -3.358E-01 -3.348E-01 -3.343E-01 -3.334E-01 -3.328E-01 -3.315E-01 -3.298E-01
                -3.285E-01 -3.271E-01 -3.264E-01 -3.258E-01 -3.252E-01 -3.249E-01 -3.232E-01 -3.221E-01 -3.215E-01 -3.209E-01
                -3.193E-01 -3.182E-01 -3.178E-01 -3.168E-01 -3.162E-01 -3.152E-01 -3.145E-01 -3.140E-01 -3.132E-01 -3.121E-01
                -3.113E-01 -3.107E-01 -3.098E-01 -3.094E-01 -3.083E-01 -3.078E-01 -3.073E-01 -3.069E-01 -3.066E-01 -3.060E-01
                -3.055E-01 -3.048E-01 -3.042E-01 -3.035E-01 -3.024E-01 -3.021E-01 -3.017E-01 -3.004E-01 -2.989E-01 -2.987E-01
                -2.985E-01 -2.981E-01 -2.968E-01 -2.962E-01 -2.952E-01 -2.945E-01 -2.938E-01 -2.927E-01 -2.921E-01 -2.911E-01
                -2.899E-01 -2.893E-01 -2.890E-01 -2.887E-01 -2.882E-01 -2.871E-01 -2.867E-01 -2.854E-01 -2.850E-01 -2.841E-01
                -2.837E-01 -2.830E-01 -2.821E-01 -2.818E-01 -2.807E-01 -2.802E-01 -2.792E-01 -2.785E-01 -2.776E-01 -2.762E-01
                -2.758E-01 -2.750E-01 -2.739E-01 -2.730E-01 -2.719E-01 -2.702E-01 -2.694E-01 -2.688E-01 -2.680E-01 -2.674E-01
                -2.660E-01 -2.652E-01 -2.643E-01 -2.635E-01 -2.631E-01 -2.622E-01 -2.618E-01 -2.609E-01 -2.604E-01 -2.593E-01
                -2.588E-01 -2.583E-01 -2.573E-01 -2.565E-01 -2.560E-01 -2.557E-01 -2.551E-01 -2.543E-01 -2.541E-01 -2.529E-01
                -2.524E-01 -2.521E-01 -2.514E-01 -2.511E-01 -2.505E-01 -2.497E-01 -2.494E-01 -2.489E-01 -2.482E-01 -2.479E-01
                -2.473E-01 -2.468E-01 -2.465E-01 -2.458E-01 -2.455E-01 -2.447E-01 -2.444E-01 -2.442E-01 -2.437E-01 -2.436E-01
                -2.426E-01 -2.422E-01 -2.419E-01 -2.417E-01 -2.412E-01 -2.405E-01 -2.400E-01 -2.398E-01 -2.392E-01 -2.385E-01
                -2.380E-01 -2.377E-01 -2.371E-01 -2.370E-01 -2.361E-01 -2.356E-01 -2.351E-01 -2.346E-01 -2.340E-01 -2.334E-01
                -2.327E-01 -2.325E-01 -2.316E-01 -2.311E-01 -2.304E-01 -2.298E-01 -2.293E-01 -2.289E-01 -2.284E-01 -2.274E-01
                -2.266E-01 -2.257E-01 -2.246E-01 -2.243E-01 -2.241E-01 -2.232E-01 -2.228E-01 -2.209E-01 -2.202E-01 -2.200E-01
                -2.191E-01 -2.179E-01 -2.160E-01 -2.150E-01 -2.144E-01 -2.137E-01 -2.132E-01 -2.106E-01 -2.106E-01 -2.097E-01
                -2.070E-01 -2.063E-01 -2.039E-01 -1.898E-01 -1.409E-02 -7.827E-03  1.061E-02  2.047E-02  4.342E-02  4.467E-02
                 4.541E-02  4.794E-02  4.998E-02  5.254E-02  5.362E-02  5.487E-02  5.612E-02  5.804E-02  5.860E-02  6.252E-02
                 6.589E-02  6.883E-02  7.151E-02

   3(***/480284/480  0/480)
                -7.404E-01 -7.400E-01 -7.399E-01 -7.399E-01 -7.396E-01 -7.395E-01 -7.393E-01 -7.391E-01 -7.391E-01 -7.388E-01
                -7.387E-01 -7.385E-01 -7.385E-01 -7.383E-01 -7.382E-01 -7.379E-01 -7.376E-01 -7.375E-01 -7.373E-01 -7.367E-01
                -7.365E-01 -7.361E-01 -7.356E-01 -7.350E-01 -7.347E-01 -7.342E-01 -7.340E-01 -7.336E-01 -7.327E-01 -7.322E-01
                -7.319E-01 -7.314E-01 -7.313E-01 -7.311E-01 -7.307E-01 -7.303E-01 -7.299E-01 -7.293E-01 -7.288E-01 -7.285E-01
                -7.281E-01 -7.279E-01 -7.276E-01 -7.273E-01 -7.272E-01 -7.268E-01 -7.264E-01 -7.263E-01 -7.259E-01 -7.255E-01
                -7.254E-01 -7.250E-01 -7.248E-01 -7.245E-01 -7.242E-01 -7.239E-01 -7.238E-01 -7.236E-01 -7.234E-01 -7.231E-01
                -7.230E-01 -7.224E-01 -7.222E-01 -7.219E-01 -7.213E-01 -7.209E-01 -7.205E-01 -7.201E-01 -7.196E-01 -7.195E-01
                -7.181E-01 -7.177E-01 -7.172E-01 -7.170E-01 -7.168E-01 -7.160E-01 -7.156E-01 -7.151E-01 -7.143E-01 -7.138E-01
                -7.134E-01 -7.127E-01 -7.119E-01 -7.115E-01 -7.111E-01 -7.103E-01 -7.102E-01 -7.095E-01 -7.087E-01 -7.080E-01
                -7.073E-01 -7.059E-01 -7.045E-01 -7.031E-01 -7.008E-01 -6.923E-01 -4.620E-01 -4.599E-01 -4.577E-01 -4.571E-01
                -4.536E-01 -4.531E-01 -4.487E-01 -4.464E-01 -4.400E-01 -4.394E-01 -4.374E-01 -4.364E-01 -4.357E-01 -4.348E-01
                -4.339E-01 -4.337E-01 -4.325E-01 -4.312E-01 -4.305E-01 -4.299E-01 -4.295E-01 -4.281E-01 -4.269E-01 -4.257E-01
                -4.241E-01 -4.238E-01 -4.219E-01 -4.215E-01 -4.200E-01 -4.185E-01 -4.182E-01 -4.166E-01 -4.152E-01 -4.145E-01
                -4.127E-01 -4.108E-01 -4.092E-01 -4.072E-01 -4.048E-01 -4.032E-01 -4.005E-01 -3.988E-01 -3.980E-01 -3.975E-01
                -3.963E-01 -3.955E-01 -3.941E-01 -3.935E-01 -3.918E-01 -3.905E-01 -3.887E-01 -3.881E-01 -3.872E-01 -3.862E-01
                -3.846E-01 -3.838E-01 -3.831E-01 -3.813E-01 -3.806E-01 -3.789E-01 -3.781E-01 -3.768E-01 -3.756E-01 -3.748E-01
                -3.737E-01 -3.726E-01 -3.723E-01 -3.712E-01 -3.699E-01 -3.696E-01 -3.682E-01 -3.671E-01 -3.664E-01 -3.660E-01
                -3.640E-01 -3.628E-01 -3.614E-01 -3.601E-01 -3.591E-01 -3.585E-01 -3.575E-01 -3.571E-01 -3.561E-01 -3.558E-01
                -3.550E-01 -3.540E-01 -3.535E-01 -3.532E-01 -3.521E-01 -3.509E-01 -3.496E-01 -3.492E-01 -3.481E-01 -3.465E-01
                -3.457E-01 -3.454E-01 -3.440E-01 -3.433E-01 -3.426E-01 -3.417E-01 -3.413E-01 -3.398E-01 -3.394E-01 -3.394E-01
                -3.379E-01 -3.377E-01 -3.366E-01 -3.363E-01 -3.358E-01 -3.354E-01 -3.331E-01 -3.328E-01 -3.327E-01 -3.320E-01
                -3.303E-01 -3.297E-01 -3.285E-01 -3.280E-01 -3.271E-01 -3.258E-01 -3.250E-01 -3.237E-01 -3.230E-01 -3.226E-01
                -3.217E-01 -3.204E-01 -3.193E-01 -3.187E-01 -3.170E-01 -3.160E-01 -3.159E-01 -3.149E-01 -3.134E-01 -3.129E-01
                -3.115E-01 -3.111E-01 -3.105E-01 -3.095E-01 -3.088E-01 -3.086E-01 -3.078E-01 -3.071E-01 -3.067E-01 -3.058E-01
                -3.055E-01 -3.051E-01 -3.042E-01 -3.037E-01 -3.033E-01 -3.021E-01 -3.014E-01 -3.011E-01 -2.998E-01 -2.997E-01
                -2.988E-01 -2.979E-01 -2.971E-01 -2.963E-01 -2.955E-01 -2.950E-01 -2.940E-01 -2.932E-01 -2.928E-01 -2.915E-01
                -2.913E-01 -2.905E-01 -2.892E-01 -2.889E-01 -2.885E-01 -2.880E-01 -2.868E-01 -2.865E-01 -2.861E-01 -2.849E-01
                -2.846E-01 -2.835E-01 -2.829E-01 -2.822E-01 -2.814E-01 -2.810E-01 -2.805E-01 -2.802E-01 -2.796E-01 -2.781E-01
                -2.779E-01 -2.774E-01 -2.765E-01 -2.761E-01 -2.754E-01 -2.733E-01 -2.729E-01 -2.702E-01 -2.695E-01 -2.680E-01
                -2.669E-01 -2.660E-01 -2.652E-01 -2.645E-01 -2.634E-01 -2.627E-01 -2.613E-01 -2.612E-01 -2.604E-01 -2.601E-01
                -2.592E-01 -2.584E-01 -2.579E-01 -2.575E-01 -2.566E-01 -2.556E-01 -2.548E-01 -2.545E-01 -2.538E-01 -2.534E-01
                -2.530E-01 -2.518E-01 -2.508E-01 -2.506E-01 -2.501E-01 -2.498E-01 -2.489E-01 -2.487E-01 -2.481E-01 -2.476E-01
                -2.471E-01 -2.468E-01 -2.462E-01 -2.455E-01 -2.452E-01 -2.450E-01 -2.444E-01 -2.442E-01 -2.441E-01 -2.431E-01
                -2.429E-01 -2.422E-01 -2.421E-01 -2.417E-01 -2.409E-01 -2.402E-01 -2.401E-01 -2.397E-01 -2.393E-01 -2.388E-01
                -2.384E-01 -2.379E-01 -2.373E-01 -2.364E-01 -2.359E-01 -2.356E-01 -2.352E-01 -2.347E-01 -2.342E-01 -2.334E-01
                -2.328E-01 -2.322E-01 -2.317E-01 -2.314E-01 -2.310E-01 -2.298E-01 -2.293E-01 -2.289E-01 -2.285E-01 -2.276E-01
                -2.271E-01 -2.256E-01 -2.248E-01 -2.237E-01 -2.233E-01 -2.229E-01 -2.219E-01 -2.206E-01 -2.201E-01 -2.193E-01
                -2.190E-01 -2.174E-01 -2.162E-01 -2.152E-01 -2.142E-01 -2.137E-01 -2.127E-01 -2.110E-01 -2.103E-01 -2.097E-01
                -2.073E-01 -2.064E-01 -2.041E-01 -1.896E-01 -4.409E-03  8.814E-04  1.825E-02  2.418E-02  3.565E-02  4.020E-02
                 4.611E-02  4.810E-02  4.933E-02  4.973E-02  5.351E-02  5.807E-02  5.910E-02  6.108E-02  6.251E-02  6.417E-02
                 6.550E-02  6.712E-02  6.879E-02

   4(***/480262/480  0/480)
                -7.403E-01 -7.401E-01 -7.401E-01 -7.399E-01 -7.398E-01 -7.397E-01 -7.396E-01 -7.392E-01 -7.391E-01 -7.390E-01
                -7.387E-01 -7.385E-01 -7.385E-01 -7.383E-01 -7.382E-01 -7.381E-01 -7.378E-01 -7.373E-01 -7.372E-01 -7.368E-01
                -7.366E-01 -7.360E-01 -7.356E-01 -7.354E-01 -7.348E-01 -7.344E-01 -7.340E-01 -7.334E-01 -7.325E-01 -7.320E-01
                -7.317E-01 -7.313E-01 -7.313E-01 -7.309E-01 -7.303E-01 -7.298E-01 -7.295E-01 -7.293E-01 -7.291E-01 -7.287E-01
                -7.277E-01 -7.271E-01 -7.269E-01 -7.268E-01 -7.265E-01 -7.264E-01 -7.263E-01 -7.258E-01 -7.257E-01 -7.255E-01
                -7.255E-01 -7.253E-01 -7.251E-01 -7.246E-01 -7.243E-01 -7.242E-01 -7.238E-01 -7.236E-01 -7.231E-01 -7.230E-01
                -7.227E-01 -7.222E-01 -7.220E-01 -7.219E-01 -7.215E-01 -7.213E-01 -7.210E-01 -7.207E-01 -7.198E-01 -7.192E-01
                -7.191E-01 -7.180E-01 -7.178E-01 -7.175E-01 -7.170E-01 -7.159E-01 -7.153E-01 -7.151E-01 -7.148E-01 -7.138E-01
                -7.134E-01 -7.125E-01 -7.119E-01 -7.116E-01 -7.111E-01 -7.109E-01 -7.100E-01 -7.093E-01 -7.089E-01 -7.081E-01
                -7.077E-01 -7.066E-01 -7.040E-01 -7.031E-01 -7.015E-01 -6.928E-01 -4.609E-01 -4.593E-01 -4.574E-01 -4.555E-01
                -4.535E-01 -4.516E-01 -4.502E-01 -4.477E-01 -4.389E-01 -4.373E-01 -4.360E-01 -4.353E-01 -4.341E-01 -4.337E-01
                -4.335E-01 -4.322E-01 -4.315E-01 -4.300E-01 -4.299E-01 -4.290E-01 -4.286E-01 -4.269E-01 -4.262E-01 -4.252E-01
                -4.243E-01 -4.221E-01 -4.216E-01 -4.212E-01 -4.198E-01 -4.193E-01 -4.168E-01 -4.153E-01 -4.146E-01 -4.128E-01
                -4.119E-01 -4.107E-01 -4.099E-01 -4.050E-01 -4.031E-01 -4.026E-01 -4.010E-01 -3.987E-01 -3.972E-01 -3.959E-01
                -3.949E-01 -3.941E-01 -3.919E-01 -3.896E-01 -3.889E-01 -3.883E-01 -3.871E-01 -3.864E-01 -3.851E-01 -3.845E-01
                -3.828E-01 -3.822E-01 -3.819E-01 -3.802E-01 -3.787E-01 -3.779E-01 -3.772E-01 -3.763E-01 -3.754E-01 -3.746E-01
                -3.741E-01 -3.730E-01 -3.720E-01 -3.718E-01 -3.708E-01 -3.696E-01 -3.688E-01 -3.682E-01 -3.680E-01 -3.664E-01
                -3.653E-01 -3.649E-01 -3.644E-01 -3.639E-01 -3.634E-01 -3.623E-01 -3.606E-01 -3.603E-01 -3.599E-01 -3.580E-01
                -3.552E-01 -3.538E-01 -3.527E-01 -3.512E-01 -3.492E-01 -3.489E-01 -3.485E-01 -3.477E-01 -3.468E-01 -3.460E-01
                -3.450E-01 -3.444E-01 -3.440E-01 -3.429E-01 -3.421E-01 -3.418E-01 -3.413E-01 -3.403E-01 -3.400E-01 -3.394E-01
                -3.391E-01 -3.381E-01 -3.363E-01 -3.357E-01 -3.352E-01 -3.343E-01 -3.341E-01 -3.333E-01 -3.326E-01 -3.323E-01
                -3.318E-01 -3.312E-01 -3.301E-01 -3.297E-01 -3.296E-01 -3.288E-01 -3.278E-01 -3.267E-01 -3.259E-01 -3.243E-01
                -3.228E-01 -3.211E-01 -3.203E-01 -3.195E-01 -3.183E-01 -3.174E-01 -3.160E-01 -3.157E-01 -3.148E-01 -3.144E-01
                -3.125E-01 -3.115E-01 -3.103E-01 -3.097E-01 -3.086E-01 -3.072E-01 -3.069E-01 -3.065E-01 -3.063E-01 -3.055E-01
                -3.050E-01 -3.045E-01 -3.040E-01 -3.031E-01 -3.030E-01 -3.026E-01 -3.018E-01 -3.008E-01 -2.997E-01 -2.993E-01
                -2.985E-01 -2.979E-01 -2.976E-01 -2.958E-01 -2.955E-01 -2.949E-01 -2.943E-01 -2.939E-01 -2.929E-01 -2.924E-01
                -2.918E-01 -2.911E-01 -2.903E-01 -2.897E-01 -2.894E-01 -2.888E-01 -2.883E-01 -2.873E-01 -2.865E-01 -2.861E-01
                -2.856E-01 -2.850E-01 -2.845E-01 -2.837E-01 -2.828E-01 -2.820E-01 -2.815E-01 -2.808E-01 -2.796E-01 -2.792E-01
                -2.789E-01 -2.781E-01 -2.776E-01 -2.770E-01 -2.766E-01 -2.756E-01 -2.752E-01 -2.717E-01 -2.706E-01 -2.695E-01
                -2.676E-01 -2.670E-01 -2.653E-01 -2.643E-01 -2.635E-01 -2.624E-01 -2.614E-01 -2.609E-01 -2.607E-01 -2.602E-01
                -2.595E-01 -2.592E-01 -2.588E-01 -2.584E-01 -2.561E-01 -2.556E-01 -2.550E-01 -2.547E-01 -2.537E-01 -2.533E-01
                -2.525E-01 -2.516E-01 -2.515E-01 -2.505E-01 -2.495E-01 -2.494E-01 -2.490E-01 -2.482E-01 -2.481E-01 -2.477E-01
                -2.468E-01 -2.466E-01 -2.462E-01 -2.456E-01 -2.455E-01 -2.451E-01 -2.446E-01 -2.443E-01 -2.438E-01 -2.431E-01
                -2.425E-01 -2.422E-01 -2.419E-01 -2.415E-01 -2.408E-01 -2.401E-01 -2.399E-01 -2.396E-01 -2.390E-01 -2.387E-01
                -2.384E-01 -2.380E-01 -2.376E-01 -2.364E-01 -2.358E-01 -2.354E-01 -2.351E-01 -2.350E-01 -2.341E-01 -2.336E-01
                -2.330E-01 -2.325E-01 -2.320E-01 -2.314E-01 -2.311E-01 -2.302E-01 -2.294E-01 -2.289E-01 -2.282E-01 -2.277E-01
                -2.273E-01 -2.259E-01 -2.254E-01 -2.233E-01 -2.230E-01 -2.224E-01 -2.210E-01 -2.208E-01 -2.201E-01 -2.189E-01
                -2.188E-01 -2.169E-01 -2.166E-01 -2.149E-01 -2.139E-01 -2.137E-01 -2.128E-01 -2.107E-01 -2.100E-01 -2.098E-01
                -2.080E-01 -2.063E-01 -2.042E-01 -1.895E-01  5.415E-03  1.021E-02  2.495E-02  2.613E-02  2.834E-02  3.106E-02
                 3.962E-02  4.235E-02  5.346E-02  5.453E-02  5.733E-02  6.007E-02  6.245E-02  6.306E-02  6.377E-02  6.429E-02
                 6.564E-02  6.700E-02  6.730E-02

   5(***/480240/480  0/480)
                -7.403E-01 -7.402E-01 -7.400E-01 -7.399E-01 -7.398E-01 -7.397E-01 -7.395E-01 -7.394E-01 -7.390E-01 -7.390E-01
                -7.387E-01 -7.387E-01 -7.384E-01 -7.383E-01 -7.381E-01 -7.380E-01 -7.380E-01 -7.372E-01 -7.369E-01 -7.368E-01
                -7.368E-01 -7.361E-01 -7.355E-01 -7.355E-01 -7.348E-01 -7.345E-01 -7.339E-01 -7.333E-01 -7.325E-01 -7.322E-01
                -7.316E-01 -7.314E-01 -7.308E-01 -7.302E-01 -7.302E-01 -7.301E-01 -7.297E-01 -7.294E-01 -7.291E-01 -7.279E-01
                -7.275E-01 -7.270E-01 -7.269E-01 -7.265E-01 -7.264E-01 -7.263E-01 -7.262E-01 -7.259E-01 -7.259E-01 -7.258E-01
                -7.255E-01 -7.253E-01 -7.249E-01 -7.241E-01 -7.241E-01 -7.238E-01 -7.238E-01 -7.237E-01 -7.237E-01 -7.234E-01
                -7.223E-01 -7.223E-01 -7.221E-01 -7.217E-01 -7.215E-01 -7.215E-01 -7.208E-01 -7.205E-01 -7.197E-01 -7.195E-01
                -7.192E-01 -7.186E-01 -7.183E-01 -7.181E-01 -7.169E-01 -7.154E-01 -7.152E-01 -7.151E-01 -7.146E-01 -7.144E-01
                -7.131E-01 -7.126E-01 -7.118E-01 -7.115E-01 -7.114E-01 -7.109E-01 -7.099E-01 -7.091E-01 -7.090E-01 -7.080E-01
                -7.079E-01 -7.070E-01 -7.037E-01 -7.030E-01 -7.019E-01 -6.930E-01 -4.604E-01 -4.592E-01 -4.574E-01 -4.546E-01
                -4.536E-01 -4.511E-01 -4.503E-01 -4.489E-01 -4.386E-01 -4.366E-01 -4.359E-01 -4.344E-01 -4.338E-01 -4.329E-01
                -4.327E-01 -4.323E-01 -4.310E-01 -4.303E-01 -4.285E-01 -4.281E-01 -4.275E-01 -4.267E-01 -4.262E-01 -4.254E-01
                -4.242E-01 -4.229E-01 -4.224E-01 -4.213E-01 -4.207E-01 -4.184E-01 -4.168E-01 -4.151E-01 -4.135E-01 -4.126E-01
                -4.122E-01 -4.080E-01 -4.070E-01 -4.068E-01 -4.056E-01 -4.009E-01 -4.007E-01 -3.993E-01 -3.989E-01 -3.940E-01
                -3.928E-01 -3.914E-01 -3.913E-01 -3.901E-01 -3.900E-01 -3.884E-01 -3.883E-01 -3.846E-01 -3.833E-01 -3.827E-01
                -3.812E-01 -3.809E-01 -3.808E-01 -3.789E-01 -3.789E-01 -3.777E-01 -3.777E-01 -3.770E-01 -3.756E-01 -3.745E-01
                -3.740E-01 -3.733E-01 -3.706E-01 -3.704E-01 -3.701E-01 -3.694E-01 -3.689E-01 -3.682E-01 -3.681E-01 -3.673E-01
                -3.671E-01 -3.664E-01 -3.660E-01 -3.653E-01 -3.645E-01 -3.638E-01 -3.631E-01 -3.626E-01 -3.610E-01 -3.599E-01
                -3.575E-01 -3.526E-01 -3.517E-01 -3.504E-01 -3.503E-01 -3.486E-01 -3.473E-01 -3.465E-01 -3.453E-01 -3.442E-01
                -3.442E-01 -3.434E-01 -3.432E-01 -3.429E-01 -3.418E-01 -3.412E-01 -3.410E-01 -3.408E-01 -3.397E-01 -3.393E-01
                -3.388E-01 -3.376E-01 -3.373E-01 -3.368E-01 -3.348E-01 -3.347E-01 -3.343E-01 -3.333E-01 -3.331E-01 -3.323E-01
                -3.323E-01 -3.317E-01 -3.315E-01 -3.311E-01 -3.298E-01 -3.285E-01 -3.282E-01 -3.276E-01 -3.273E-01 -3.260E-01
                -3.244E-01 -3.227E-01 -3.220E-01 -3.202E-01 -3.187E-01 -3.175E-01 -3.156E-01 -3.156E-01 -3.151E-01 -3.126E-01
                -3.123E-01 -3.120E-01 -3.116E-01 -3.094E-01 -3.089E-01 -3.079E-01 -3.064E-01 -3.057E-01 -3.054E-01 -3.050E-01
                -3.046E-01 -3.038E-01 -3.038E-01 -3.032E-01 -3.029E-01 -3.027E-01 -3.020E-01 -3.001E-01 -2.999E-01 -2.990E-01
                -2.984E-01 -2.972E-01 -2.969E-01 -2.960E-01 -2.958E-01 -2.956E-01 -2.951E-01 -2.940E-01 -2.926E-01 -2.923E-01
                -2.914E-01 -2.909E-01 -2.907E-01 -2.902E-01 -2.902E-01 -2.893E-01 -2.890E-01 -2.885E-01 -2.876E-01 -2.868E-01
                -2.860E-01 -2.853E-01 -2.845E-01 -2.842E-01 -2.833E-01 -2.826E-01 -2.819E-01 -2.818E-01 -2.801E-01 -2.800E-01
                -2.797E-01 -2.773E-01 -2.772E-01 -2.767E-01 -2.766E-01 -2.764E-01 -2.751E-01 -2.726E-01 -2.715E-01 -2.702E-01
                -2.679E-01 -2.674E-01 -2.657E-01 -2.639E-01 -2.629E-01 -2.622E-01 -2.612E-01 -2.612E-01 -2.606E-01 -2.603E-01
                -2.601E-01 -2.596E-01 -2.592E-01 -2.589E-01 -2.559E-01 -2.557E-01 -2.551E-01 -2.542E-01 -2.537E-01 -2.534E-01
                -2.521E-01 -2.520E-01 -2.509E-01 -2.507E-01 -2.499E-01 -2.491E-01 -2.487E-01 -2.486E-01 -2.478E-01 -2.469E-01
                -2.469E-01 -2.468E-01 -2.464E-01 -2.463E-01 -2.453E-01 -2.450E-01 -2.449E-01 -2.446E-01 -2.431E-01 -2.428E-01
                -2.428E-01 -2.422E-01 -2.421E-01 -2.418E-01 -2.402E-01 -2.401E-01 -2.395E-01 -2.392E-01 -2.391E-01 -2.390E-01
                -2.385E-01 -2.379E-01 -2.375E-01 -2.363E-01 -2.358E-01 -2.357E-01 -2.355E-01 -2.342E-01 -2.341E-01 -2.340E-01
                -2.335E-01 -2.324E-01 -2.322E-01 -2.313E-01 -2.310E-01 -2.304E-01 -2.295E-01 -2.287E-01 -2.286E-01 -2.277E-01
                -2.265E-01 -2.263E-01 -2.261E-01 -2.233E-01 -2.227E-01 -2.220E-01 -2.213E-01 -2.203E-01 -2.202E-01 -2.188E-01
                -2.185E-01 -2.171E-01 -2.166E-01 -2.146E-01 -2.138E-01 -2.138E-01 -2.131E-01 -2.103E-01 -2.099E-01 -2.098E-01
                -2.084E-01 -2.063E-01 -2.043E-01 -1.894E-01  1.474E-02  1.581E-02  1.927E-02  2.099E-02  3.274E-02  3.280E-02
                 3.354E-02  3.750E-02  5.793E-02  5.847E-02  5.919E-02  5.951E-02  6.070E-02  6.080E-02  6.083E-02  6.532E-02
                 6.852E-02  6.917E-02  7.082E-02

    BETA       ELECTRONS

   1(***/480328/480  0/480)
                -7.397E-01 -7.396E-01 -7.395E-01 -7.393E-01 -7.392E-01 -7.391E-01 -7.390E-01 -7.389E-01 -7.388E-01 -7.387E-01
                -7.386E-01 -7.385E-01 -7.383E-01 -7.382E-01 -7.380E-01 -7.377E-01 -7.375E-01 -7.371E-01 -7.369E-01 -7.366E-01
                -7.359E-01 -7.357E-01 -7.353E-01 -7.351E-01 -7.351E-01 -7.347E-01 -7.335E-01 -7.334E-01 -7.330E-01 -7.326E-01
                -7.321E-01 -7.317E-01 -7.316E-01 -7.311E-01 -7.308E-01 -7.303E-01 -7.299E-01 -7.296E-01 -7.291E-01 -7.289E-01
                -7.285E-01 -7.282E-01 -7.279E-01 -7.277E-01 -7.275E-01 -7.271E-01 -7.268E-01 -7.265E-01 -7.261E-01 -7.259E-01
                -7.257E-01 -7.255E-01 -7.251E-01 -7.248E-01 -7.247E-01 -7.244E-01 -7.239E-01 -7.233E-01 -7.228E-01 -7.227E-01
                -7.221E-01 -7.220E-01 -7.215E-01 -7.213E-01 -7.206E-01 -7.203E-01 -7.196E-01 -7.193E-01 -7.189E-01 -7.187E-01
                -7.180E-01 -7.169E-01 -7.161E-01 -7.159E-01 -7.154E-01 -7.153E-01 -7.146E-01 -7.143E-01 -7.141E-01 -7.134E-01
                -7.124E-01 -7.122E-01 -7.115E-01 -7.112E-01 -7.110E-01 -7.106E-01 -7.093E-01 -7.086E-01 -7.085E-01 -7.074E-01
                -7.062E-01 -7.055E-01 -7.054E-01 -7.016E-01 -6.991E-01 -6.906E-01 -4.647E-01 -4.611E-01 -4.607E-01 -4.580E-01
                -4.567E-01 -4.534E-01 -4.482E-01 -4.468E-01 -4.446E-01 -4.426E-01 -4.406E-01 -4.387E-01 -4.375E-01 -4.371E-01
                -4.364E-01 -4.355E-01 -4.341E-01 -4.340E-01 -4.334E-01 -4.321E-01 -4.318E-01 -4.306E-01 -4.299E-01 -4.282E-01
                -4.273E-01 -4.261E-01 -4.252E-01 -4.241E-01 -4.234E-01 -4.217E-01 -4.202E-01 -4.184E-01 -4.175E-01 -4.151E-01
                -4.125E-01 -4.102E-01 -4.095E-01 -4.073E-01 -4.067E-01 -4.055E-01 -4.043E-01 -4.037E-01 -4.029E-01 -4.019E-01
                -4.011E-01 -4.003E-01 -3.998E-01 -3.975E-01 -3.963E-01 -3.951E-01 -3.940E-01 -3.926E-01 -3.896E-01 -3.882E-01
                -3.870E-01 -3.862E-01 -3.846E-01 -3.831E-01 -3.799E-01 -3.795E-01 -3.766E-01 -3.765E-01 -3.757E-01 -3.732E-01
                -3.723E-01 -3.715E-01 -3.708E-01 -3.701E-01 -3.686E-01 -3.673E-01 -3.667E-01 -3.651E-01 -3.628E-01 -3.623E-01
                -3.601E-01 -3.586E-01 -3.574E-01 -3.562E-01 -3.543E-01 -3.540E-01 -3.530E-01 -3.513E-01 -3.504E-01 -3.501E-01
                -3.494E-01 -3.490E-01 -3.485E-01 -3.479E-01 -3.473E-01 -3.464E-01 -3.461E-01 -3.451E-01 -3.442E-01 -3.437E-01
                -3.432E-01 -3.423E-01 -3.415E-01 -3.404E-01 -3.396E-01 -3.392E-01 -3.386E-01 -3.380E-01 -3.369E-01 -3.365E-01
                -3.354E-01 -3.338E-01 -3.335E-01 -3.327E-01 -3.314E-01 -3.304E-01 -3.291E-01 -3.282E-01 -3.272E-01 -3.263E-01
                -3.253E-01 -3.243E-01 -3.234E-01 -3.226E-01 -3.214E-01 -3.206E-01 -3.203E-01 -3.183E-01 -3.172E-01 -3.169E-01
                -3.160E-01 -3.152E-01 -3.138E-01 -3.132E-01 -3.124E-01 -3.120E-01 -3.110E-01 -3.107E-01 -3.102E-01 -3.094E-01
                -3.089E-01 -3.080E-01 -3.074E-01 -3.070E-01 -3.066E-01 -3.057E-01 -3.052E-01 -3.044E-01 -3.040E-01 -3.035E-01
                -3.024E-01 -3.018E-01 -3.013E-01 -3.001E-01 -2.999E-01 -2.985E-01 -2.981E-01 -2.975E-01 -2.962E-01 -2.960E-01
                -2.950E-01 -2.946E-01 -2.930E-01 -2.922E-01 -2.913E-01 -2.910E-01 -2.905E-01 -2.899E-01 -2.896E-01 -2.887E-01
                -2.880E-01 -2.874E-01 -2.862E-01 -2.854E-01 -2.848E-01 -2.841E-01 -2.833E-01 -2.829E-01 -2.827E-01 -2.816E-01
                -2.797E-01 -2.791E-01 -2.783E-01 -2.768E-01 -2.759E-01 -2.750E-01 -2.736E-01 -2.726E-01 -2.713E-01 -2.702E-01
                -2.687E-01 -2.681E-01 -2.673E-01 -2.666E-01 -2.659E-01 -2.648E-01 -2.646E-01 -2.639E-01 -2.628E-01 -2.623E-01
                -2.615E-01 -2.611E-01 -2.607E-01 -2.599E-01 -2.595E-01 -2.586E-01 -2.578E-01 -2.573E-01 -2.565E-01 -2.562E-01
                -2.557E-01 -2.550E-01 -2.542E-01 -2.538E-01 -2.535E-01 -2.526E-01 -2.524E-01 -2.519E-01 -2.516E-01 -2.508E-01
                -2.500E-01 -2.497E-01 -2.494E-01 -2.478E-01 -2.476E-01 -2.475E-01 -2.470E-01 -2.468E-01 -2.464E-01 -2.458E-01
                -2.448E-01 -2.445E-01 -2.439E-01 -2.435E-01 -2.431E-01 -2.429E-01 -2.425E-01 -2.422E-01 -2.418E-01 -2.415E-01
                -2.411E-01 -2.404E-01 -2.399E-01 -2.391E-01 -2.387E-01 -2.379E-01 -2.376E-01 -2.369E-01 -2.367E-01 -2.362E-01
                -2.354E-01 -2.350E-01 -2.347E-01 -2.342E-01 -2.337E-01 -2.328E-01 -2.325E-01 -2.324E-01 -2.314E-01 -2.309E-01
                -2.304E-01 -2.298E-01 -2.290E-01 -2.285E-01 -2.279E-01 -2.275E-01 -2.268E-01 -2.259E-01 -2.255E-01 -2.254E-01
                -2.240E-01 -2.235E-01 -2.228E-01 -2.219E-01 -2.215E-01 -2.208E-01 -2.191E-01 -2.180E-01 -2.173E-01 -2.154E-01
                -2.148E-01 -2.139E-01 -2.137E-01 -2.127E-01 -2.109E-01 -2.100E-01 -2.096E-01 -2.071E-01 -2.060E-01 -2.033E-01
                -1.884E-01 -1.384E-01 -1.322E-01 -1.242E-01 -2.314E-02 -1.506E-02  3.753E-03  1.814E-02  3.904E-02  4.117E-02
                 4.414E-02  4.794E-02  5.087E-02  5.442E-02  5.500E-02  5.591E-02  5.815E-02  5.867E-02  6.188E-02  6.485E-02
                 6.668E-02  6.765E-02  6.835E-02

   2(***/480306/480  0/480)
                -7.400E-01 -7.399E-01 -7.397E-01 -7.395E-01 -7.393E-01 -7.392E-01 -7.391E-01 -7.390E-01 -7.390E-01 -7.388E-01
                -7.385E-01 -7.383E-01 -7.382E-01 -7.381E-01 -7.378E-01 -7.377E-01 -7.375E-01 -7.372E-01 -7.369E-01 -7.365E-01
                -7.361E-01 -7.358E-01 -7.355E-01 -7.351E-01 -7.345E-01 -7.340E-01 -7.336E-01 -7.333E-01 -7.325E-01 -7.323E-01
                -7.322E-01 -7.318E-01 -7.310E-01 -7.307E-01 -7.303E-01 -7.302E-01 -7.298E-01 -7.292E-01 -7.288E-01 -7.285E-01
                -7.283E-01 -7.281E-01 -7.276E-01 -7.273E-01 -7.273E-01 -7.270E-01 -7.267E-01 -7.263E-01 -7.262E-01 -7.259E-01
                -7.253E-01 -7.252E-01 -7.249E-01 -7.246E-01 -7.244E-01 -7.240E-01 -7.237E-01 -7.233E-01 -7.232E-01 -7.226E-01
                -7.224E-01 -7.221E-01 -7.219E-01 -7.213E-01 -7.211E-01 -7.208E-01 -7.200E-01 -7.191E-01 -7.188E-01 -7.182E-01
                -7.180E-01 -7.180E-01 -7.170E-01 -7.164E-01 -7.159E-01 -7.154E-01 -7.148E-01 -7.142E-01 -7.141E-01 -7.139E-01
                -7.129E-01 -7.127E-01 -7.119E-01 -7.113E-01 -7.111E-01 -7.104E-01 -7.094E-01 -7.092E-01 -7.086E-01 -7.077E-01
                -7.067E-01 -7.055E-01 -7.050E-01 -7.024E-01 -6.999E-01 -6.914E-01 -4.633E-01 -4.599E-01 -4.590E-01 -4.575E-01
                -4.550E-01 -4.530E-01 -4.476E-01 -4.451E-01 -4.431E-01 -4.401E-01 -4.389E-01 -4.379E-01 -4.364E-01 -4.354E-01
                -4.347E-01 -4.340E-01 -4.336E-01 -4.323E-01 -4.311E-01 -4.308E-01 -4.297E-01 -4.293E-01 -4.279E-01 -4.268E-01
                -4.250E-01 -4.242E-01 -4.235E-01 -4.222E-01 -4.218E-01 -4.203E-01 -4.186E-01 -4.169E-01 -4.162E-01 -4.128E-01
                -4.115E-01 -4.101E-01 -4.089E-01 -4.071E-01 -4.053E-01 -4.041E-01 -4.022E-01 -4.006E-01 -4.000E-01 -3.995E-01
                -3.976E-01 -3.969E-01 -3.961E-01 -3.956E-01 -3.943E-01 -3.931E-01 -3.918E-01 -3.908E-01 -3.886E-01 -3.873E-01
                -3.854E-01 -3.840E-01 -3.831E-01 -3.823E-01 -3.806E-01 -3.775E-01 -3.767E-01 -3.751E-01 -3.743E-01 -3.734E-01
                -3.718E-01 -3.710E-01 -3.703E-01 -3.697E-01 -3.682E-01 -3.675E-01 -3.665E-01 -3.636E-01 -3.625E-01 -3.610E-01
                -3.603E-01 -3.588E-01 -3.576E-01 -3.563E-01 -3.555E-01 -3.548E-01 -3.544E-01 -3.534E-01 -3.531E-01 -3.521E-01
                -3.518E-01 -3.514E-01 -3.505E-01 -3.496E-01 -3.489E-01 -3.485E-01 -3.470E-01 -3.455E-01 -3.453E-01 -3.448E-01
                -3.445E-01 -3.429E-01 -3.424E-01 -3.415E-01 -3.406E-01 -3.403E-01 -3.392E-01 -3.386E-01 -3.373E-01 -3.367E-01
                -3.358E-01 -3.350E-01 -3.343E-01 -3.339E-01 -3.336E-01 -3.328E-01 -3.313E-01 -3.298E-01 -3.290E-01 -3.275E-01
                -3.271E-01 -3.251E-01 -3.246E-01 -3.238E-01 -3.225E-01 -3.218E-01 -3.209E-01 -3.200E-01 -3.185E-01 -3.179E-01
                -3.170E-01 -3.162E-01 -3.156E-01 -3.151E-01 -3.141E-01 -3.134E-01 -3.125E-01 -3.114E-01 -3.108E-01 -3.103E-01
                -3.095E-01 -3.086E-01 -3.083E-01 -3.079E-01 -3.071E-01 -3.064E-01 -3.059E-01 -3.054E-01 -3.044E-01 -3.042E-01
                -3.038E-01 -3.024E-01 -3.017E-01 -3.014E-01 -3.006E-01 -2.992E-01 -2.990E-01 -2.980E-01 -2.976E-01 -2.970E-01
                -2.967E-01 -2.956E-01 -2.946E-01 -2.937E-01 -2.929E-01 -2.922E-01 -2.916E-01 -2.904E-01 -2.895E-01 -2.889E-01
                -2.885E-01 -2.877E-01 -2.868E-01 -2.860E-01 -2.850E-01 -2.845E-01 -2.841E-01 -2.832E-01 -2.824E-01 -2.817E-01
                -2.813E-01 -2.806E-01 -2.799E-01 -2.788E-01 -2.781E-01 -2.772E-01 -2.764E-01 -2.756E-01 -2.737E-01 -2.732E-01
                -2.719E-01 -2.709E-01 -2.696E-01 -2.685E-01 -2.680E-01 -2.671E-01 -2.663E-01 -2.652E-01 -2.642E-01 -2.632E-01
                -2.623E-01 -2.618E-01 -2.612E-01 -2.609E-01 -2.596E-01 -2.590E-01 -2.586E-01 -2.580E-01 -2.566E-01 -2.561E-01
                -2.558E-01 -2.555E-01 -2.549E-01 -2.537E-01 -2.533E-01 -2.527E-01 -2.518E-01 -2.516E-01 -2.511E-01 -2.506E-01
                -2.501E-01 -2.497E-01 -2.493E-01 -2.484E-01 -2.481E-01 -2.477E-01 -2.470E-01 -2.468E-01 -2.460E-01 -2.453E-01
                -2.450E-01 -2.447E-01 -2.443E-01 -2.439E-01 -2.436E-01 -2.430E-01 -2.425E-01 -2.421E-01 -2.417E-01 -2.414E-01
                -2.412E-01 -2.409E-01 -2.397E-01 -2.391E-01 -2.389E-01 -2.383E-01 -2.376E-01 -2.372E-01 -2.368E-01 -2.364E-01
                -2.356E-01 -2.352E-01 -2.349E-01 -2.346E-01 -2.334E-01 -2.332E-01 -2.325E-01 -2.323E-01 -2.316E-01 -2.311E-01
                -2.304E-01 -2.299E-01 -2.292E-01 -2.286E-01 -2.281E-01 -2.276E-01 -2.269E-01 -2.262E-01 -2.250E-01 -2.242E-01
                -2.239E-01 -2.231E-01 -2.226E-01 -2.219E-01 -2.199E-01 -2.199E-01 -2.191E-01 -2.183E-01 -2.169E-01 -2.155E-01
                -2.144E-01 -2.144E-01 -2.137E-01 -2.125E-01 -2.106E-01 -2.104E-01 -2.096E-01 -2.069E-01 -2.062E-01 -2.036E-01
                -1.881E-01 -1.378E-01 -1.327E-01 -1.238E-01 -1.374E-02 -7.236E-03  1.126E-02  2.111E-02  4.388E-02  4.576E-02
                 4.585E-02  4.842E-02  5.019E-02  5.338E-02  5.397E-02  5.566E-02  5.653E-02  5.867E-02  5.915E-02  6.347E-02
                 6.619E-02  6.901E-02  7.196E-02

   3(***/480284/480  0/480)
                -7.402E-01 -7.399E-01 -7.399E-01 -7.397E-01 -7.395E-01 -7.394E-01 -7.393E-01 -7.391E-01 -7.389E-01 -7.388E-01
                -7.385E-01 -7.385E-01 -7.382E-01 -7.382E-01 -7.378E-01 -7.376E-01 -7.375E-01 -7.372E-01 -7.370E-01 -7.365E-01
                -7.364E-01 -7.358E-01 -7.354E-01 -7.349E-01 -7.343E-01 -7.339E-01 -7.337E-01 -7.328E-01 -7.326E-01 -7.319E-01
                -7.316E-01 -7.311E-01 -7.310E-01 -7.308E-01 -7.303E-01 -7.301E-01 -7.295E-01 -7.288E-01 -7.285E-01 -7.282E-01
                -7.279E-01 -7.277E-01 -7.274E-01 -7.272E-01 -7.271E-01 -7.267E-01 -7.263E-01 -7.262E-01 -7.257E-01 -7.254E-01
                -7.254E-01 -7.249E-01 -7.244E-01 -7.243E-01 -7.240E-01 -7.239E-01 -7.237E-01 -7.234E-01 -7.231E-01 -7.230E-01
                -7.227E-01 -7.222E-01 -7.221E-01 -7.217E-01 -7.211E-01 -7.205E-01 -7.204E-01 -7.200E-01 -7.195E-01 -7.187E-01
                -7.178E-01 -7.175E-01 -7.170E-01 -7.167E-01 -7.164E-01 -7.160E-01 -7.153E-01 -7.149E-01 -7.142E-01 -7.137E-01
                -7.133E-01 -7.125E-01 -7.118E-01 -7.114E-01 -7.111E-01 -7.103E-01 -7.101E-01 -7.094E-01 -7.087E-01 -7.079E-01
                -7.072E-01 -7.058E-01 -7.044E-01 -7.029E-01 -7.007E-01 -6.922E-01 -4.619E-01 -4.591E-01 -4.576E-01 -4.569E-01
                -4.533E-01 -4.529E-01 -4.483E-01 -4.462E-01 -4.394E-01 -4.387E-01 -4.371E-01 -4.362E-01 -4.355E-01 -4.339E-01
                -4.335E-01 -4.333E-01 -4.321E-01 -4.310E-01 -4.301E-01 -4.296E-01 -4.290E-01 -4.278E-01 -4.261E-01 -4.247E-01
                -4.238E-01 -4.230E-01 -4.215E-01 -4.212E-01 -4.195E-01 -4.180E-01 -4.173E-01 -4.163E-01 -4.147E-01 -4.140E-01
                -4.121E-01 -4.103E-01 -4.086E-01 -4.066E-01 -4.043E-01 -4.024E-01 -3.996E-01 -3.981E-01 -3.977E-01 -3.968E-01
                -3.957E-01 -3.948E-01 -3.935E-01 -3.930E-01 -3.914E-01 -3.899E-01 -3.882E-01 -3.873E-01 -3.869E-01 -3.848E-01
                -3.841E-01 -3.834E-01 -3.819E-01 -3.801E-01 -3.799E-01 -3.778E-01 -3.764E-01 -3.762E-01 -3.746E-01 -3.739E-01
                -3.726E-01 -3.712E-01 -3.706E-01 -3.698E-01 -3.688E-01 -3.673E-01 -3.663E-01 -3.654E-01 -3.637E-01 -3.623E-01
                -3.603E-01 -3.594E-01 -3.587E-01 -3.581E-01 -3.571E-01 -3.563E-01 -3.552E-01 -3.552E-01 -3.546E-01 -3.541E-01
                -3.534E-01 -3.529E-01 -3.519E-01 -3.502E-01 -3.494E-01 -3.490E-01 -3.469E-01 -3.457E-01 -3.451E-01 -3.444E-01
                -3.436E-01 -3.430E-01 -3.426E-01 -3.414E-01 -3.412E-01 -3.396E-01 -3.389E-01 -3.387E-01 -3.378E-01 -3.371E-01
                -3.368E-01 -3.361E-01 -3.353E-01 -3.350E-01 -3.341E-01 -3.330E-01 -3.321E-01 -3.312E-01 -3.305E-01 -3.294E-01
                -3.288E-01 -3.284E-01 -3.272E-01 -3.267E-01 -3.242E-01 -3.233E-01 -3.223E-01 -3.219E-01 -3.207E-01 -3.199E-01
                -3.188E-01 -3.178E-01 -3.169E-01 -3.156E-01 -3.147E-01 -3.134E-01 -3.127E-01 -3.120E-01 -3.111E-01 -3.102E-01
                -3.099E-01 -3.092E-01 -3.086E-01 -3.081E-01 -3.074E-01 -3.069E-01 -3.060E-01 -3.056E-01 -3.050E-01 -3.044E-01
                -3.032E-01 -3.026E-01 -3.020E-01 -3.015E-01 -3.011E-01 -3.000E-01 -2.996E-01 -2.991E-01 -2.983E-01 -2.979E-01
                -2.969E-01 -2.963E-01 -2.953E-01 -2.945E-01 -2.937E-01 -2.930E-01 -2.918E-01 -2.910E-01 -2.904E-01 -2.899E-01
                -2.892E-01 -2.881E-01 -2.877E-01 -2.866E-01 -2.859E-01 -2.857E-01 -2.848E-01 -2.837E-01 -2.829E-01 -2.824E-01
                -2.818E-01 -2.812E-01 -2.809E-01 -2.799E-01 -2.797E-01 -2.793E-01 -2.786E-01 -2.774E-01 -2.771E-01 -2.764E-01
                -2.742E-01 -2.736E-01 -2.728E-01 -2.716E-01 -2.691E-01 -2.687E-01 -2.676E-01 -2.657E-01 -2.647E-01 -2.643E-01
                -2.628E-01 -2.622E-01 -2.617E-01 -2.609E-01 -2.601E-01 -2.593E-01 -2.587E-01 -2.584E-01 -2.576E-01 -2.568E-01
                -2.560E-01 -2.550E-01 -2.541E-01 -2.540E-01 -2.536E-01 -2.526E-01 -2.522E-01 -2.514E-01 -2.508E-01 -2.500E-01
                -2.498E-01 -2.496E-01 -2.489E-01 -2.484E-01 -2.480E-01 -2.477E-01 -2.470E-01 -2.465E-01 -2.461E-01 -2.453E-01
                -2.451E-01 -2.447E-01 -2.445E-01 -2.440E-01 -2.435E-01 -2.428E-01 -2.425E-01 -2.420E-01 -2.416E-01 -2.416E-01
                -2.410E-01 -2.407E-01 -2.399E-01 -2.393E-01 -2.390E-01 -2.383E-01 -2.378E-01 -2.375E-01 -2.366E-01 -2.361E-01
                -2.358E-01 -2.352E-01 -2.351E-01 -2.348E-01 -2.339E-01 -2.330E-01 -2.326E-01 -2.322E-01 -2.315E-01 -2.312E-01
                -2.310E-01 -2.302E-01 -2.290E-01 -2.286E-01 -2.283E-01 -2.276E-01 -2.270E-01 -2.265E-01 -2.246E-01 -2.244E-01
                -2.236E-01 -2.227E-01 -2.221E-01 -2.214E-01 -2.197E-01 -2.190E-01 -2.185E-01 -2.181E-01 -2.170E-01 -2.155E-01
                -2.145E-01 -2.141E-01 -2.137E-01 -2.123E-01 -2.108E-01 -2.103E-01 -2.097E-01 -2.071E-01 -2.063E-01 -2.038E-01
                -1.879E-01 -1.372E-01 -1.333E-01 -1.235E-01 -4.075E-03  1.454E-03  1.886E-02  2.481E-02  3.596E-02  4.056E-02
                 4.646E-02  4.866E-02  4.984E-02  5.072E-02  5.403E-02  5.888E-02  5.959E-02  6.142E-02  6.310E-02  6.464E-02
                 6.661E-02  6.731E-02  6.930E-02

   4(***/480262/480  0/480)
                -7.402E-01 -7.401E-01 -7.399E-01 -7.398E-01 -7.396E-01 -7.396E-01 -7.395E-01 -7.391E-01 -7.390E-01 -7.388E-01
                -7.387E-01 -7.385E-01 -7.384E-01 -7.381E-01 -7.381E-01 -7.378E-01 -7.373E-01 -7.371E-01 -7.366E-01 -7.366E-01
                -7.361E-01 -7.358E-01 -7.354E-01 -7.350E-01 -7.344E-01 -7.341E-01 -7.334E-01 -7.330E-01 -7.320E-01 -7.318E-01
                -7.313E-01 -7.312E-01 -7.311E-01 -7.306E-01 -7.300E-01 -7.297E-01 -7.293E-01 -7.291E-01 -7.288E-01 -7.282E-01
                -7.275E-01 -7.270E-01 -7.268E-01 -7.267E-01 -7.264E-01 -7.263E-01 -7.260E-01 -7.257E-01 -7.256E-01 -7.255E-01
                -7.253E-01 -7.250E-01 -7.249E-01 -7.245E-01 -7.242E-01 -7.238E-01 -7.235E-01 -7.232E-01 -7.229E-01 -7.228E-01
                -7.224E-01 -7.221E-01 -7.220E-01 -7.217E-01 -7.215E-01 -7.211E-01 -7.208E-01 -7.205E-01 -7.196E-01 -7.190E-01
                -7.182E-01 -7.179E-01 -7.176E-01 -7.171E-01 -7.167E-01 -7.157E-01 -7.152E-01 -7.149E-01 -7.147E-01 -7.137E-01
                -7.133E-01 -7.124E-01 -7.117E-01 -7.115E-01 -7.111E-01 -7.109E-01 -7.099E-01 -7.093E-01 -7.088E-01 -7.081E-01
                -7.077E-01 -7.065E-01 -7.039E-01 -7.030E-01 -7.014E-01 -6.926E-01 -4.606E-01 -4.588E-01 -4.570E-01 -4.554E-01
                -4.532E-01 -4.514E-01 -4.497E-01 -4.476E-01 -4.381E-01 -4.370E-01 -4.357E-01 -4.350E-01 -4.337E-01 -4.333E-01
                -4.326E-01 -4.319E-01 -4.311E-01 -4.298E-01 -4.297E-01 -4.287E-01 -4.279E-01 -4.263E-01 -4.256E-01 -4.245E-01
                -4.232E-01 -4.218E-01 -4.212E-01 -4.209E-01 -4.195E-01 -4.190E-01 -4.161E-01 -4.147E-01 -4.142E-01 -4.121E-01
                -4.115E-01 -4.099E-01 -4.092E-01 -4.046E-01 -4.024E-01 -4.017E-01 -4.003E-01 -3.982E-01 -3.968E-01 -3.954E-01
                -3.945E-01 -3.934E-01 -3.909E-01 -3.892E-01 -3.884E-01 -3.877E-01 -3.866E-01 -3.858E-01 -3.841E-01 -3.831E-01
                -3.823E-01 -3.814E-01 -3.809E-01 -3.796E-01 -3.774E-01 -3.770E-01 -3.764E-01 -3.751E-01 -3.750E-01 -3.728E-01
                -3.727E-01 -3.721E-01 -3.715E-01 -3.704E-01 -3.699E-01 -3.684E-01 -3.679E-01 -3.674E-01 -3.656E-01 -3.647E-01
                -3.640E-01 -3.634E-01 -3.618E-01 -3.607E-01 -3.601E-01 -3.594E-01 -3.583E-01 -3.577E-01 -3.541E-01 -3.527E-01
                -3.525E-01 -3.504E-01 -3.492E-01 -3.490E-01 -3.484E-01 -3.471E-01 -3.462E-01 -3.452E-01 -3.450E-01 -3.437E-01
                -3.432E-01 -3.422E-01 -3.416E-01 -3.414E-01 -3.404E-01 -3.400E-01 -3.396E-01 -3.391E-01 -3.385E-01 -3.381E-01
                -3.378E-01 -3.353E-01 -3.349E-01 -3.345E-01 -3.339E-01 -3.330E-01 -3.324E-01 -3.314E-01 -3.311E-01 -3.308E-01
                -3.299E-01 -3.294E-01 -3.292E-01 -3.284E-01 -3.281E-01 -3.277E-01 -3.264E-01 -3.256E-01 -3.232E-01 -3.204E-01
                -3.193E-01 -3.187E-01 -3.174E-01 -3.162E-01 -3.156E-01 -3.145E-01 -3.139E-01 -3.115E-01 -3.114E-01 -3.109E-01
                -3.102E-01 -3.084E-01 -3.076E-01 -3.071E-01 -3.064E-01 -3.062E-01 -3.058E-01 -3.051E-01 -3.046E-01 -3.040E-01
                -3.032E-01 -3.026E-01 -3.020E-01 -3.016E-01 -3.012E-01 -3.005E-01 -2.996E-01 -2.991E-01 -2.984E-01 -2.976E-01
                -2.969E-01 -2.966E-01 -2.954E-01 -2.951E-01 -2.942E-01 -2.934E-01 -2.925E-01 -2.917E-01 -2.915E-01 -2.907E-01
                -2.899E-01 -2.894E-01 -2.886E-01 -2.878E-01 -2.874E-01 -2.865E-01 -2.855E-01 -2.848E-01 -2.841E-01 -2.837E-01
                -2.834E-01 -2.822E-01 -2.816E-01 -2.809E-01 -2.809E-01 -2.791E-01 -2.788E-01 -2.787E-01 -2.782E-01 -2.771E-01
                -2.764E-01 -2.751E-01 -2.745E-01 -2.727E-01 -2.704E-01 -2.697E-01 -2.693E-01 -2.666E-01 -2.652E-01 -2.639E-01
                -2.635E-01 -2.623E-01 -2.616E-01 -2.608E-01 -2.603E-01 -2.597E-01 -2.595E-01 -2.587E-01 -2.577E-01 -2.571E-01
                -2.561E-01 -2.549E-01 -2.546E-01 -2.536E-01 -2.531E-01 -2.526E-01 -2.522E-01 -2.510E-01 -2.506E-01 -2.502E-01
                -2.495E-01 -2.493E-01 -2.487E-01 -2.483E-01 -2.479E-01 -2.475E-01 -2.473E-01 -2.465E-01 -2.460E-01 -2.457E-01
                -2.454E-01 -2.446E-01 -2.442E-01 -2.435E-01 -2.435E-01 -2.429E-01 -2.426E-01 -2.422E-01 -2.416E-01 -2.414E-01
                -2.411E-01 -2.406E-01 -2.398E-01 -2.389E-01 -2.386E-01 -2.383E-01 -2.379E-01 -2.372E-01 -2.366E-01 -2.361E-01
                -2.355E-01 -2.353E-01 -2.351E-01 -2.349E-01 -2.348E-01 -2.332E-01 -2.329E-01 -2.321E-01 -2.318E-01 -2.313E-01
                -2.307E-01 -2.303E-01 -2.292E-01 -2.289E-01 -2.279E-01 -2.278E-01 -2.271E-01 -2.264E-01 -2.253E-01 -2.244E-01
                -2.239E-01 -2.226E-01 -2.215E-01 -2.203E-01 -2.199E-01 -2.188E-01 -2.181E-01 -2.179E-01 -2.163E-01 -2.159E-01
                -2.143E-01 -2.139E-01 -2.137E-01 -2.126E-01 -2.105E-01 -2.100E-01 -2.098E-01 -2.078E-01 -2.062E-01 -2.040E-01
                -1.878E-01 -1.368E-01 -1.337E-01 -1.233E-01  5.754E-03  1.076E-02  2.549E-02  2.653E-02  2.885E-02  3.146E-02
                 3.995E-02  4.308E-02  5.381E-02  5.548E-02  5.782E-02  6.054E-02  6.285E-02  6.345E-02  6.453E-02  6.493E-02
                 6.632E-02  6.720E-02  6.782E-02

   5(***/480240/480  0/480)
                -7.402E-01 -7.400E-01 -7.400E-01 -7.398E-01 -7.397E-01 -7.397E-01 -7.395E-01 -7.394E-01 -7.390E-01 -7.388E-01
                -7.386E-01 -7.386E-01 -7.384E-01 -7.382E-01 -7.380E-01 -7.380E-01 -7.372E-01 -7.369E-01 -7.366E-01 -7.363E-01
                -7.362E-01 -7.359E-01 -7.353E-01 -7.349E-01 -7.344E-01 -7.342E-01 -7.332E-01 -7.329E-01 -7.321E-01 -7.321E-01
                -7.313E-01 -7.312E-01 -7.306E-01 -7.301E-01 -7.301E-01 -7.297E-01 -7.296E-01 -7.290E-01 -7.285E-01 -7.278E-01
                -7.275E-01 -7.268E-01 -7.268E-01 -7.265E-01 -7.264E-01 -7.262E-01 -7.260E-01 -7.258E-01 -7.257E-01 -7.255E-01
                -7.253E-01 -7.253E-01 -7.243E-01 -7.241E-01 -7.240E-01 -7.238E-01 -7.237E-01 -7.236E-01 -7.233E-01 -7.230E-01
                -7.222E-01 -7.221E-01 -7.219E-01 -7.215E-01 -7.214E-01 -7.212E-01 -7.207E-01 -7.203E-01 -7.197E-01 -7.194E-01
                -7.185E-01 -7.183E-01 -7.179E-01 -7.174E-01 -7.167E-01 -7.151E-01 -7.151E-01 -7.149E-01 -7.145E-01 -7.143E-01
                -7.130E-01 -7.126E-01 -7.117E-01 -7.114E-01 -7.113E-01 -7.109E-01 -7.098E-01 -7.091E-01 -7.089E-01 -7.079E-01
                -7.079E-01 -7.069E-01 -7.036E-01 -7.029E-01 -7.017E-01 -6.928E-01 -4.599E-01 -4.591E-01 -4.568E-01 -4.545E-01
                -4.534E-01 -4.505E-01 -4.501E-01 -4.488E-01 -4.379E-01 -4.365E-01 -4.355E-01 -4.340E-01 -4.336E-01 -4.326E-01
                -4.322E-01 -4.311E-01 -4.307E-01 -4.302E-01 -4.281E-01 -4.273E-01 -4.273E-01 -4.262E-01 -4.256E-01 -4.248E-01
                -4.238E-01 -4.220E-01 -4.218E-01 -4.211E-01 -4.203E-01 -4.181E-01 -4.166E-01 -4.139E-01 -4.132E-01 -4.120E-01
                -4.118E-01 -4.074E-01 -4.061E-01 -4.054E-01 -4.050E-01 -4.007E-01 -4.000E-01 -3.988E-01 -3.983E-01 -3.935E-01
                -3.920E-01 -3.910E-01 -3.909E-01 -3.897E-01 -3.895E-01 -3.876E-01 -3.866E-01 -3.838E-01 -3.826E-01 -3.819E-01
                -3.806E-01 -3.800E-01 -3.797E-01 -3.780E-01 -3.778E-01 -3.770E-01 -3.769E-01 -3.754E-01 -3.746E-01 -3.736E-01
                -3.734E-01 -3.725E-01 -3.702E-01 -3.701E-01 -3.690E-01 -3.681E-01 -3.677E-01 -3.668E-01 -3.668E-01 -3.658E-01
                -3.656E-01 -3.651E-01 -3.648E-01 -3.642E-01 -3.620E-01 -3.612E-01 -3.606E-01 -3.574E-01 -3.548E-01 -3.522E-01
                -3.515E-01 -3.503E-01 -3.502E-01 -3.475E-01 -3.470E-01 -3.461E-01 -3.450E-01 -3.436E-01 -3.430E-01 -3.430E-01
                -3.429E-01 -3.422E-01 -3.418E-01 -3.409E-01 -3.404E-01 -3.403E-01 -3.397E-01 -3.395E-01 -3.377E-01 -3.371E-01
                -3.367E-01 -3.366E-01 -3.362E-01 -3.346E-01 -3.343E-01 -3.333E-01 -3.330E-01 -3.323E-01 -3.319E-01 -3.317E-01
                -3.303E-01 -3.295E-01 -3.293E-01 -3.291E-01 -3.290E-01 -3.280E-01 -3.279E-01 -3.249E-01 -3.243E-01 -3.238E-01
                -3.225E-01 -3.201E-01 -3.184E-01 -3.146E-01 -3.145E-01 -3.142E-01 -3.130E-01 -3.124E-01 -3.123E-01 -3.096E-01
                -3.092E-01 -3.085E-01 -3.085E-01 -3.067E-01 -3.059E-01 -3.058E-01 -3.051E-01 -3.045E-01 -3.043E-01 -3.042E-01
                -3.034E-01 -3.029E-01 -3.021E-01 -3.020E-01 -3.014E-01 -3.004E-01 -2.997E-01 -2.981E-01 -2.978E-01 -2.969E-01
                -2.969E-01 -2.965E-01 -2.961E-01 -2.951E-01 -2.948E-01 -2.938E-01 -2.934E-01 -2.922E-01 -2.915E-01 -2.908E-01
                -2.898E-01 -2.898E-01 -2.892E-01 -2.888E-01 -2.879E-01 -2.871E-01 -2.861E-01 -2.853E-01 -2.846E-01 -2.839E-01
                -2.830E-01 -2.829E-01 -2.826E-01 -2.823E-01 -2.813E-01 -2.800E-01 -2.799E-01 -2.785E-01 -2.771E-01 -2.768E-01
                -2.759E-01 -2.758E-01 -2.745E-01 -2.735E-01 -2.710E-01 -2.705E-01 -2.699E-01 -2.669E-01 -2.655E-01 -2.638E-01
                -2.635E-01 -2.620E-01 -2.614E-01 -2.608E-01 -2.604E-01 -2.601E-01 -2.601E-01 -2.584E-01 -2.583E-01 -2.574E-01
                -2.563E-01 -2.548E-01 -2.542E-01 -2.542E-01 -2.528E-01 -2.523E-01 -2.515E-01 -2.513E-01 -2.503E-01 -2.502E-01
                -2.500E-01 -2.489E-01 -2.488E-01 -2.483E-01 -2.478E-01 -2.476E-01 -2.467E-01 -2.467E-01 -2.461E-01 -2.461E-01
                -2.458E-01 -2.444E-01 -2.440E-01 -2.437E-01 -2.433E-01 -2.431E-01 -2.427E-01 -2.423E-01 -2.417E-01 -2.416E-01
                -2.410E-01 -2.404E-01 -2.393E-01 -2.392E-01 -2.385E-01 -2.384E-01 -2.372E-01 -2.368E-01 -2.363E-01 -2.361E-01
                -2.358E-01 -2.357E-01 -2.353E-01 -2.351E-01 -2.341E-01 -2.339E-01 -2.331E-01 -2.322E-01 -2.315E-01 -2.314E-01
                -2.307E-01 -2.303E-01 -2.294E-01 -2.290E-01 -2.280E-01 -2.275E-01 -2.271E-01 -2.260E-01 -2.256E-01 -2.248E-01
                -2.240E-01 -2.225E-01 -2.213E-01 -2.200E-01 -2.194E-01 -2.191E-01 -2.183E-01 -2.176E-01 -2.162E-01 -2.157E-01
                -2.143E-01 -2.138E-01 -2.138E-01 -2.130E-01 -2.101E-01 -2.099E-01 -2.097E-01 -2.082E-01 -2.062E-01 -2.040E-01
                -1.878E-01 -1.366E-01 -1.338E-01 -1.232E-01  1.532E-02  1.601E-02  1.976E-02  2.140E-02  3.331E-02  3.337E-02
                 3.375E-02  3.826E-02  5.838E-02  5.877E-02  5.988E-02  6.047E-02  6.102E-02  6.115E-02  6.158E-02  6.556E-02
                 6.939E-02  6.982E-02  7.093E-02

 LINE  2 (-0.50 0.50 0.00: 0.00 0.00 0.00) IN TERMS OF PRIMITIVE LATTICE VECTORS
  11 POINTS - SHRINKING_FACTOR1320
 CARTESIAN COORD. (-0.067 0.272-0.017):( 0.000 0.000 0.000) STEP  0.0255


    ALPHA      ELECTRONS

   1(***/***600/***  0/***)
                -7.403E-01 -7.401E-01 -7.401E-01 -7.399E-01 -7.398E-01 -7.397E-01 -7.396E-01 -7.392E-01 -7.391E-01 -7.390E-01
                -7.387E-01 -7.385E-01 -7.385E-01 -7.383E-01 -7.382E-01 -7.381E-01 -7.378E-01 -7.373E-01 -7.372E-01 -7.368E-01
                -7.366E-01 -7.360E-01 -7.356E-01 -7.354E-01 -7.348E-01 -7.344E-01 -7.340E-01 -7.334E-01 -7.325E-01 -7.320E-01
                -7.317E-01 -7.313E-01 -7.312E-01 -7.309E-01 -7.303E-01 -7.298E-01 -7.295E-01 -7.293E-01 -7.291E-01 -7.287E-01
                -7.277E-01 -7.271E-01 -7.269E-01 -7.268E-01 -7.265E-01 -7.264E-01 -7.263E-01 -7.258E-01 -7.257E-01 -7.255E-01
                -7.255E-01 -7.253E-01 -7.251E-01 -7.246E-01 -7.243E-01 -7.242E-01 -7.238E-01 -7.236E-01 -7.231E-01 -7.230E-01
                -7.227E-01 -7.222E-01 -7.220E-01 -7.219E-01 -7.215E-01 -7.213E-01 -7.210E-01 -7.207E-01 -7.198E-01 -7.192E-01
                -7.191E-01 -7.180E-01 -7.178E-01 -7.175E-01 -7.170E-01 -7.159E-01 -7.153E-01 -7.151E-01 -7.149E-01 -7.138E-01
                -7.134E-01 -7.125E-01 -7.119E-01 -7.116E-01 -7.111E-01 -7.109E-01 -7.100E-01 -7.093E-01 -7.089E-01 -7.081E-01
                -7.077E-01 -7.066E-01 -7.040E-01 -7.031E-01 -7.015E-01 -6.928E-01 -4.609E-01 -4.593E-01 -4.574E-01 -4.555E-01
                -4.535E-01 -4.516E-01 -4.502E-01 -4.477E-01 -4.389E-01 -4.373E-01 -4.360E-01 -4.353E-01 -4.341E-01 -4.337E-01
                -4.334E-01 -4.322E-01 -4.315E-01 -4.300E-01 -4.299E-01 -4.290E-01 -4.286E-01 -4.269E-01 -4.262E-01 -4.252E-01
                -4.243E-01 -4.221E-01 -4.216E-01 -4.212E-01 -4.198E-01 -4.193E-01 -4.168E-01 -4.153E-01 -4.146E-01 -4.128E-01
                -4.119E-01 -4.107E-01 -4.099E-01 -4.050E-01 -4.031E-01 -4.026E-01 -4.010E-01 -3.987E-01 -3.972E-01 -3.959E-01
                -3.949E-01 -3.941E-01 -3.919E-01 -3.896E-01 -3.889E-01 -3.883E-01 -3.871E-01 -3.864E-01 -3.851E-01 -3.846E-01
                -3.828E-01 -3.822E-01 -3.818E-01 -3.802E-01 -3.787E-01 -3.779E-01 -3.772E-01 -3.763E-01 -3.754E-01 -3.746E-01
                -3.741E-01 -3.730E-01 -3.721E-01 -3.717E-01 -3.707E-01 -3.696E-01 -3.688E-01 -3.683E-01 -3.680E-01 -3.664E-01
                -3.653E-01 -3.649E-01 -3.644E-01 -3.639E-01 -3.634E-01 -3.623E-01 -3.606E-01 -3.604E-01 -3.600E-01 -3.580E-01
                -3.552E-01 -3.538E-01 -3.526E-01 -3.512E-01 -3.492E-01 -3.489E-01 -3.485E-01 -3.476E-01 -3.467E-01 -3.460E-01
                -3.450E-01 -3.443E-01 -3.440E-01 -3.429E-01 -3.421E-01 -3.418E-01 -3.414E-01 -3.404E-01 -3.400E-01 -3.394E-01
                -3.391E-01 -3.381E-01 -3.363E-01 -3.357E-01 -3.351E-01 -3.343E-01 -3.342E-01 -3.333E-01 -3.325E-01 -3.323E-01
                -3.318E-01 -3.312E-01 -3.301E-01 -3.297E-01 -3.296E-01 -3.289E-01 -3.278E-01 -3.268E-01 -3.259E-01 -3.243E-01
                -3.229E-01 -3.211E-01 -3.203E-01 -3.195E-01 -3.183E-01 -3.174E-01 -3.160E-01 -3.157E-01 -3.148E-01 -3.143E-01
                -3.124E-01 -3.115E-01 -3.103E-01 -3.098E-01 -3.086E-01 -3.072E-01 -3.069E-01 -3.065E-01 -3.063E-01 -3.055E-01
                -3.050E-01 -3.045E-01 -3.040E-01 -3.031E-01 -3.029E-01 -3.026E-01 -3.018E-01 -3.008E-01 -2.998E-01 -2.993E-01
                -2.985E-01 -2.979E-01 -2.976E-01 -2.958E-01 -2.955E-01 -2.949E-01 -2.943E-01 -2.939E-01 -2.929E-01 -2.924E-01
                -2.917E-01 -2.911E-01 -2.904E-01 -2.897E-01 -2.894E-01 -2.888E-01 -2.883E-01 -2.873E-01 -2.865E-01 -2.861E-01
                -2.856E-01 -2.850E-01 -2.845E-01 -2.837E-01 -2.829E-01 -2.820E-01 -2.815E-01 -2.808E-01 -2.796E-01 -2.793E-01
                -2.789E-01 -2.781E-01 -2.776E-01 -2.770E-01 -2.766E-01 -2.756E-01 -2.752E-01 -2.717E-01 -2.707E-01 -2.695E-01
                -2.676E-01 -2.670E-01 -2.653E-01 -2.643E-01 -2.635E-01 -2.624E-01 -2.614E-01 -2.609E-01 -2.607E-01 -2.602E-01
                -2.595E-01 -2.592E-01 -2.588E-01 -2.584E-01 -2.561E-01 -2.556E-01 -2.550E-01 -2.547E-01 -2.537E-01 -2.533E-01
                -2.525E-01 -2.516E-01 -2.515E-01 -2.505E-01 -2.495E-01 -2.494E-01 -2.490E-01 -2.482E-01 -2.480E-01 -2.477E-01
                -2.468E-01 -2.466E-01 -2.462E-01 -2.456E-01 -2.455E-01 -2.451E-01 -2.446E-01 -2.443E-01 -2.438E-01 -2.431E-01
                -2.425E-01 -2.422E-01 -2.419E-01 -2.415E-01 -2.408E-01 -2.401E-01 -2.399E-01 -2.396E-01 -2.390E-01 -2.387E-01
                -2.384E-01 -2.380E-01 -2.376E-01 -2.364E-01 -2.358E-01 -2.354E-01 -2.351E-01 -2.350E-01 -2.341E-01 -2.336E-01
                -2.330E-01 -2.325E-01 -2.320E-01 -2.314E-01 -2.311E-01 -2.302E-01 -2.294E-01 -2.289E-01 -2.282E-01 -2.277E-01
                -2.273E-01 -2.259E-01 -2.254E-01 -2.233E-01 -2.230E-01 -2.224E-01 -2.210E-01 -2.208E-01 -2.201E-01 -2.189E-01
                -2.188E-01 -2.169E-01 -2.166E-01 -2.149E-01 -2.139E-01 -2.137E-01 -2.128E-01 -2.107E-01 -2.100E-01 -2.098E-01
                -2.080E-01 -2.063E-01 -2.042E-01 -1.894E-01  5.496E-03  1.029E-02  2.492E-02  2.614E-02  2.834E-02  3.101E-02
                 3.957E-02  4.230E-02  5.350E-02  5.458E-02  5.736E-02  6.008E-02  6.242E-02  6.304E-02  6.379E-02  6.428E-02
                 6.565E-02  6.703E-02  6.733E-02

   2(***/***540/***  0/***)
                -7.404E-01 -7.400E-01 -7.399E-01 -7.399E-01 -7.396E-01 -7.395E-01 -7.393E-01 -7.391E-01 -7.391E-01 -7.388E-01
                -7.387E-01 -7.385E-01 -7.385E-01 -7.383E-01 -7.382E-01 -7.379E-01 -7.376E-01 -7.375E-01 -7.373E-01 -7.367E-01
                -7.365E-01 -7.361E-01 -7.356E-01 -7.350E-01 -7.347E-01 -7.342E-01 -7.340E-01 -7.336E-01 -7.327E-01 -7.322E-01
                -7.319E-01 -7.314E-01 -7.313E-01 -7.311E-01 -7.307E-01 -7.303E-01 -7.298E-01 -7.293E-01 -7.288E-01 -7.285E-01
                -7.281E-01 -7.279E-01 -7.275E-01 -7.273E-01 -7.271E-01 -7.268E-01 -7.264E-01 -7.263E-01 -7.259E-01 -7.255E-01
                -7.254E-01 -7.250E-01 -7.248E-01 -7.245E-01 -7.242E-01 -7.240E-01 -7.238E-01 -7.236E-01 -7.234E-01 -7.231E-01
                -7.230E-01 -7.224E-01 -7.222E-01 -7.219E-01 -7.213E-01 -7.209E-01 -7.205E-01 -7.201E-01 -7.196E-01 -7.195E-01
                -7.181E-01 -7.177E-01 -7.172E-01 -7.170E-01 -7.168E-01 -7.161E-01 -7.156E-01 -7.151E-01 -7.143E-01 -7.138E-01
                -7.134E-01 -7.126E-01 -7.119E-01 -7.115E-01 -7.111E-01 -7.103E-01 -7.102E-01 -7.095E-01 -7.087E-01 -7.080E-01
                -7.073E-01 -7.059E-01 -7.045E-01 -7.031E-01 -7.008E-01 -6.923E-01 -4.620E-01 -4.599E-01 -4.576E-01 -4.571E-01
                -4.536E-01 -4.531E-01 -4.488E-01 -4.464E-01 -4.400E-01 -4.393E-01 -4.374E-01 -4.364E-01 -4.357E-01 -4.348E-01
                -4.339E-01 -4.337E-01 -4.324E-01 -4.312E-01 -4.305E-01 -4.298E-01 -4.295E-01 -4.281E-01 -4.269E-01 -4.257E-01
                -4.240E-01 -4.238E-01 -4.218E-01 -4.215E-01 -4.200E-01 -4.184E-01 -4.182E-01 -4.167E-01 -4.152E-01 -4.145E-01
                -4.127E-01 -4.108E-01 -4.092E-01 -4.071E-01 -4.048E-01 -4.032E-01 -4.005E-01 -3.989E-01 -3.980E-01 -3.975E-01
[...]
-rw-r--r-- 1 felipe users         0 Nov 28 11:16 fort.75.pe075
-rw-r--r-- 1 felipe users         0 Nov 28 11:16 fort.75.pe076
-rw-r--r-- 1 felipe users         0 Nov 28 11:16 fort.75.pe077
-rw-r--r-- 1 felipe users         0 Nov 28 11:16 fort.75.pe078
-rw-r--r-- 1 felipe users         0 Nov 28 11:16 fort.75.pe079
-rw-r--r-- 1 felipe users         0 Nov 28 11:16 fort.75.pe080
-rw-r--r-- 1 felipe users         0 Nov 28 11:16 fort.75.pe081
-rw-r--r-- 1 felipe users         0 Nov 28 11:16 fort.75.pe082
-rw-r--r-- 1 felipe users         0 Nov 28 11:16 fort.75.pe083
-rw-r--r-- 1 felipe users         0 Nov 28 11:16 fort.75.pe084
-rw-r--r-- 1 felipe users         0 Nov 28 11:16 fort.75.pe085
-rw-r--r-- 1 felipe users         0 Nov 28 11:16 fort.75.pe086
-rw-r--r-- 1 felipe users         0 Nov 28 11:16 fort.75.pe087
-rw-r--r-- 1 felipe users         0 Nov 28 11:16 fort.75.pe088
-rw-r--r-- 1 felipe users         0 Nov 28 11:16 fort.75.pe089
-rw-r--r-- 1 felipe users         0 Nov 28 11:16 fort.75.pe090
-rw-r--r-- 1 felipe users         0 Nov 28 11:16 fort.75.pe091
-rw-r--r-- 1 felipe users         0 Nov 28 11:16 fort.75.pe092
-rw-r--r-- 1 felipe users         0 Nov 28 11:16 fort.75.pe093
-rw-r--r-- 1 felipe users         0 Nov 28 11:16 fort.75.pe094
-rw-r--r-- 1 felipe users         0 Nov 28 11:16 fort.75.pe095
-rw-r--r-- 1 felipe users         0 Nov 28 11:16 fort.75.pe096
-rw-r--r-- 1 felipe users         0 Nov 28 11:16 fort.75.pe097
-rw-r--r-- 1 felipe users         0 Nov 28 11:16 fort.75.pe098
-rw-r--r-- 1 felipe users         0 Nov 28 11:16 fort.75.pe099
-rw-r--r-- 1 felipe users         0 Nov 28 11:16 fort.75.pe100
-rw-r--r-- 1 felipe users         0 Nov 28 11:16 fort.75.pe101
-rw-r--r-- 1 felipe users         0 Nov 28 11:16 fort.75.pe102
-rw-r--r-- 1 felipe users         0 Nov 28 11:16 fort.75.pe103
-rw-r--r-- 1 felipe users         0 Nov 28 11:16 fort.75.pe104
-rw-r--r-- 1 felipe users         0 Nov 28 11:16 fort.75.pe105
-rw-r--r-- 1 felipe users         0 Nov 28 11:16 fort.75.pe106
-rw-r--r-- 1 felipe users         0 Nov 28 11:16 fort.75.pe107
-rw-r--r-- 1 felipe users         0 Nov 28 11:16 fort.75.pe108
-rw-r--r-- 1 felipe users         0 Nov 28 11:16 fort.75.pe109
-rw-r--r-- 1 felipe users         0 Nov 28 11:16 fort.75.pe110
-rw-r--r-- 1 felipe users         0 Nov 28 11:16 fort.75.pe111
-rw-r--r-- 1 felipe users         0 Nov 28 11:16 fort.75.pe112
-rw-r--r-- 1 felipe users         0 Nov 28 11:16 fort.75.pe113
-rw-r--r-- 1 felipe users         0 Nov 28 11:16 fort.75.pe114
-rw-r--r-- 1 felipe users         0 Nov 28 11:16 fort.75.pe115
-rw-r--r-- 1 felipe users         0 Nov 28 11:16 fort.75.pe116
-rw-r--r-- 1 felipe users         0 Nov 28 11:16 fort.75.pe117
-rw-r--r-- 1 felipe users         0 Nov 28 11:16 fort.75.pe118
-rw-r--r-- 1 felipe users         0 Nov 28 11:16 fort.75.pe119
-rw-r--r-- 1 felipe users         0 Nov 28 11:16 fort.75.pe120
-rw-r--r-- 1 felipe users         0 Nov 28 11:16 fort.75.pe121
-rw-r--r-- 1 felipe users         0 Nov 28 11:16 fort.75.pe122
-rw-r--r-- 1 felipe users         0 Nov 28 11:16 fort.75.pe123
-rw-r--r-- 1 felipe users         0 Nov 28 11:16 fort.75.pe124
-rw-r--r-- 1 felipe users         0 Nov 28 11:16 fort.75.pe125
-rw-r--r-- 1 felipe users         0 Nov 28 11:16 fort.75.pe126
-rw-r--r-- 1 felipe users         0 Nov 28 11:16 fort.75.pe127
-rw-r--r-- 1 felipe users         0 Nov 28 11:16 fort.77.pe000
-rw-r--r-- 1 felipe users         0 Nov 28 11:16 fort.77.pe001
-rw-r--r-- 1 felipe users         0 Nov 28 11:16 fort.77.pe002
-rw-r--r-- 1 felipe users         0 Nov 28 11:16 fort.77.pe003
-rw-r--r-- 1 felipe users         0 Nov 28 11:16 fort.77.pe004
-rw-r--r-- 1 felipe users         0 Nov 28 11:16 fort.77.pe005
-rw-r--r-- 1 felipe users         0 Nov 28 11:16 fort.77.pe006
-rw-r--r-- 1 felipe users         0 Nov 28 11:16 fort.77.pe007
-rw-r--r-- 1 felipe users         0 Nov 28 11:16 fort.77.pe008
-rw-r--r-- 1 felipe users         0 Nov 28 11:16 fort.77.pe009
-rw-r--r-- 1 felipe users         0 Nov 28 11:16 fort.77.pe010
-rw-r--r-- 1 felipe users         0 Nov 28 11:16 fort.77.pe011
-rw-r--r-- 1 felipe users         0 Nov 28 11:16 fort.77.pe012
-rw-r--r-- 1 felipe users         0 Nov 28 11:16 fort.77.pe013
-rw-r--r-- 1 felipe users         0 Nov 28 11:16 fort.77.pe014
-rw-r--r-- 1 felipe users         0 Nov 28 11:16 fort.77.pe015
-rw-r--r-- 1 felipe users         0 Nov 28 11:16 fort.77.pe016
-rw-r--r-- 1 felipe users         0 Nov 28 11:16 fort.77.pe017
-rw-r--r-- 1 felipe users         0 Nov 28 11:16 fort.77.pe018
-rw-r--r-- 1 felipe users         0 Nov 28 11:16 fort.77.pe019
-rw-r--r-- 1 felipe users         0 Nov 28 11:16 fort.77.pe020
-rw-r--r-- 1 felipe users         0 Nov 28 11:16 fort.77.pe021
-rw-r--r-- 1 felipe users         0 Nov 28 11:16 fort.77.pe022
-rw-r--r-- 1 felipe users         0 Nov 28 11:16 fort.77.pe023
-rw-r--r-- 1 felipe users         0 Nov 28 11:16 fort.77.pe024
-rw-r--r-- 1 felipe users         0 Nov 28 11:16 fort.77.pe025
-rw-r--r-- 1 felipe users         0 Nov 28 11:16 fort.77.pe026
-rw-r--r-- 1 felipe users         0 Nov 28 11:16 fort.77.pe027
-rw-r--r-- 1 felipe users         0 Nov 28 11:16 fort.77.pe028
-rw-r--r-- 1 felipe users         0 Nov 28 11:16 fort.77.pe029
-rw-r--r-- 1 felipe users         0 Nov 28 11:16 fort.77.pe030
-rw-r--r-- 1 felipe users         0 Nov 28 11:16 fort.77.pe031
-rw-r--r-- 1 felipe users         0 Nov 28 11:16 fort.77.pe032
-rw-r--r-- 1 felipe users         0 Nov 28 11:16 fort.77.pe033
-rw-r--r-- 1 felipe users         0 Nov 28 11:16 fort.77.pe034
-rw-r--r-- 1 felipe users         0 Nov 28 11:16 fort.77.pe035
-rw-r--r-- 1 felipe users         0 Nov 28 11:16 fort.77.pe036
-rw-r--r-- 1 felipe users         0 Nov 28 11:16 fort.77.pe037
-rw-r--r-- 1 felipe users         0 Nov 28 11:16 fort.77.pe038
-rw-r--r-- 1 felipe users         0 Nov 28 11:16 fort.77.pe039
-rw-r--r-- 1 felipe users         0 Nov 28 11:16 fort.77.pe040
-rw-r--r-- 1 felipe users         0 Nov 28 11:16 fort.77.pe041
-rw-r--r-- 1 felipe users         0 Nov 28 11:16 fort.77.pe042
-rw-r--r-- 1 felipe users         0 Nov 28 11:16 fort.77.pe043
-rw-r--r-- 1 felipe users         0 Nov 28 11:16 fort.77.pe044
-rw-r--r-- 1 felipe users         0 Nov 28 11:16 fort.77.pe045
-rw-r--r-- 1 felipe users         0 Nov 28 11:16 fort.77.pe046
-rw-r--r-- 1 felipe users         0 Nov 28 11:16 fort.77.pe047
-rw-r--r-- 1 felipe users         0 Nov 28 11:16 fort.77.pe048
-rw-r--r-- 1 felipe users         0 Nov 28 11:16 fort.77.pe049
-rw-r--r-- 1 felipe users         0 Nov 28 11:16 fort.77.pe050
-rw-r--r-- 1 felipe users         0 Nov 28 11:16 fort.77.pe051
-rw-r--r-- 1 felipe users         0 Nov 28 11:16 fort.77.pe052
-rw-r--r-- 1 felipe users         0 Nov 28 11:16 fort.77.pe053
-rw-r--r-- 1 felipe users         0 Nov 28 11:16 fort.77.pe054
-rw-r--r-- 1 felipe users         0 Nov 28 11:16 fort.77.pe055
-rw-r--r-- 1 felipe users         0 Nov 28 11:16 fort.77.pe056
-rw-r--r-- 1 felipe users         0 Nov 28 11:16 fort.77.pe057
-rw-r--r-- 1 felipe users         0 Nov 28 11:16 fort.77.pe058
-rw-r--r-- 1 felipe users         0 Nov 28 11:16 fort.77.pe059
-rw-r--r-- 1 felipe users         0 Nov 28 11:16 fort.77.pe060
-rw-r--r-- 1 felipe users         0 Nov 28 11:16 fort.77.pe061
-rw-r--r-- 1 felipe users         0 Nov 28 11:16 fort.77.pe062
-rw-r--r-- 1 felipe users         0 Nov 28 11:16 fort.77.pe063
-rw-r--r-- 1 felipe users         0 Nov 28 11:16 fort.77.pe064
-rw-r--r-- 1 felipe users         0 Nov 28 11:16 fort.77.pe065
-rw-r--r-- 1 felipe users         0 Nov 28 11:16 fort.77.pe066
-rw-r--r-- 1 felipe users         0 Nov 28 11:16 fort.77.pe067
-rw-r--r-- 1 felipe users         0 Nov 28 11:16 fort.77.pe068
-rw-r--r-- 1 felipe users         0 Nov 28 11:16 fort.77.pe069
-rw-r--r-- 1 felipe users         0 Nov 28 11:16 fort.77.pe070
-rw-r--r-- 1 felipe users         0 Nov 28 11:16 fort.77.pe071
-rw-r--r-- 1 felipe users         0 Nov 28 11:16 fort.77.pe072
-rw-r--r-- 1 felipe users         0 Nov 28 11:16 fort.77.pe073
-rw-r--r-- 1 felipe users         0 Nov 28 11:16 fort.77.pe074
-rw-r--r-- 1 felipe users         0 Nov 28 11:16 fort.77.pe075
-rw-r--r-- 1 felipe users         0 Nov 28 11:16 fort.77.pe076
-rw-r--r-- 1 felipe users         0 Nov 28 11:16 fort.77.pe077
-rw-r--r-- 1 felipe users         0 Nov 28 11:16 fort.77.pe078
-rw-r--r-- 1 felipe users         0 Nov 28 11:16 fort.77.pe079
-rw-r--r-- 1 felipe users         0 Nov 28 11:16 fort.77.pe080
-rw-r--r-- 1 felipe users         0 Nov 28 11:16 fort.77.pe081
-rw-r--r-- 1 felipe users         0 Nov 28 11:16 fort.77.pe082
-rw-r--r-- 1 felipe users         0 Nov 28 11:16 fort.77.pe083
-rw-r--r-- 1 felipe users         0 Nov 28 11:16 fort.77.pe084
-rw-r--r-- 1 felipe users         0 Nov 28 11:16 fort.77.pe085
-rw-r--r-- 1 felipe users         0 Nov 28 11:16 fort.77.pe086
-rw-r--r-- 1 felipe users         0 Nov 28 11:16 fort.77.pe087
-rw-r--r-- 1 felipe users         0 Nov 28 11:16 fort.77.pe088
-rw-r--r-- 1 felipe users         0 Nov 28 11:16 fort.77.pe089
-rw-r--r-- 1 felipe users         0 Nov 28 11:16 fort.77.pe090
-rw-r--r-- 1 felipe users         0 Nov 28 11:16 fort.77.pe091
-rw-r--r-- 1 felipe users         0 Nov 28 11:16 fort.77.pe092
-rw-r--r-- 1 felipe users         0 Nov 28 11:16 fort.77.pe093
-rw-r--r-- 1 felipe users         0 Nov 28 11:16 fort.77.pe094
-rw-r--r-- 1 felipe users         0 Nov 28 11:16 fort.77.pe095
-rw-r--r-- 1 felipe users         0 Nov 28 11:16 fort.77.pe096
-rw-r--r-- 1 felipe users         0 Nov 28 11:16 fort.77.pe097
-rw-r--r-- 1 felipe users         0 Nov 28 11:16 fort.77.pe098
-rw-r--r-- 1 felipe users         0 Nov 28 11:16 fort.77.pe099
-rw-r--r-- 1 felipe users         0 Nov 28 11:16 fort.77.pe100
-rw-r--r-- 1 felipe users         0 Nov 28 11:16 fort.77.pe101
-rw-r--r-- 1 felipe users         0 Nov 28 11:16 fort.77.pe102
-rw-r--r-- 1 felipe users         0 Nov 28 11:16 fort.77.pe103
-rw-r--r-- 1 felipe users         0 Nov 28 11:16 fort.77.pe104
-rw-r--r-- 1 felipe users         0 Nov 28 11:16 fort.77.pe105
-rw-r--r-- 1 felipe users         0 Nov 28 11:16 fort.77.pe106
-rw-r--r-- 1 felipe users         0 Nov 28 11:16 fort.77.pe107
-rw-r--r-- 1 felipe users         0 Nov 28 11:16 fort.77.pe108
-rw-r--r-- 1 felipe users         0 Nov 28 11:16 fort.77.pe109
-rw-r--r-- 1 felipe users         0 Nov 28 11:16 fort.77.pe110
-rw-r--r-- 1 felipe users         0 Nov 28 11:16 fort.77.pe111
-rw-r--r-- 1 felipe users         0 Nov 28 11:16 fort.77.pe112
-rw-r--r-- 1 felipe users         0 Nov 28 11:16 fort.77.pe113
-rw-r--r-- 1 felipe users         0 Nov 28 11:16 fort.77.pe114
-rw-r--r-- 1 felipe users         0 Nov 28 11:16 fort.77.pe115
-rw-r--r-- 1 felipe users         0 Nov 28 11:16 fort.77.pe116
-rw-r--r-- 1 felipe users         0 Nov 28 11:16 fort.77.pe117
-rw-r--r-- 1 felipe users         0 Nov 28 11:16 fort.77.pe118
-rw-r--r-- 1 felipe users         0 Nov 28 11:16 fort.77.pe119
-rw-r--r-- 1 felipe users         0 Nov 28 11:16 fort.77.pe120
-rw-r--r-- 1 felipe users         0 Nov 28 11:16 fort.77.pe121
-rw-r--r-- 1 felipe users         0 Nov 28 11:16 fort.77.pe122
-rw-r--r-- 1 felipe users         0 Nov 28 11:16 fort.77.pe123
-rw-r--r-- 1 felipe users         0 Nov 28 11:16 fort.77.pe124
-rw-r--r-- 1 felipe users         0 Nov 28 11:16 fort.77.pe125
-rw-r--r-- 1 felipe users         0 Nov 28 11:16 fort.77.pe126
-rw-r--r-- 1 felipe users         0 Nov 28 11:16 fort.77.pe127
-rw-r--r-- 1 felipe users         0 Nov 28 11:16 fort.8.pe000
-rw-r--r-- 1 felipe users         0 Nov 28 11:16 fort.8.pe001
-rw-r--r-- 1 felipe users         0 Nov 28 11:16 fort.8.pe002
-rw-r--r-- 1 felipe users         0 Nov 28 11:16 fort.8.pe003
-rw-r--r-- 1 felipe users         0 Nov 28 11:16 fort.8.pe004
-rw-r--r-- 1 felipe users         0 Nov 28 11:16 fort.8.pe005
-rw-r--r-- 1 felipe users         0 Nov 28 11:16 fort.8.pe006
-rw-r--r-- 1 felipe users         0 Nov 28 11:16 fort.8.pe007
-rw-r--r-- 1 felipe users         0 Nov 28 11:16 fort.8.pe008
-rw-r--r-- 1 felipe users         0 Nov 28 11:16 fort.8.pe009
-rw-r--r-- 1 felipe users         0 Nov 28 11:16 fort.8.pe010
-rw-r--r-- 1 felipe users         0 Nov 28 11:16 fort.8.pe011
-rw-r--r-- 1 felipe users         0 Nov 28 11:16 fort.8.pe012
-rw-r--r-- 1 felipe users         0 Nov 28 11:16 fort.8.pe013
-rw-r--r-- 1 felipe users         0 Nov 28 11:16 fort.8.pe014
-rw-r--r-- 1 felipe users         0 Nov 28 11:16 fort.8.pe015
-rw-r--r-- 1 felipe users         0 Nov 28 11:16 fort.8.pe016
-rw-r--r-- 1 felipe users         0 Nov 28 11:16 fort.8.pe017
-rw-r--r-- 1 felipe users         0 Nov 28 11:16 fort.8.pe018
-rw-r--r-- 1 felipe users         0 Nov 28 11:16 fort.8.pe019
-rw-r--r-- 1 felipe users         0 Nov 28 11:16 fort.8.pe020
-rw-r--r-- 1 felipe users         0 Nov 28 11:16 fort.8.pe021
-rw-r--r-- 1 felipe users         0 Nov 28 11:16 fort.8.pe022
-rw-r--r-- 1 felipe users         0 Nov 28 11:16 fort.8.pe023
-rw-r--r-- 1 felipe users         0 Nov 28 11:16 fort.8.pe024
-rw-r--r-- 1 felipe users         0 Nov 28 11:16 fort.8.pe025
-rw-r--r-- 1 felipe users         0 Nov 28 11:16 fort.8.pe026
-rw-r--r-- 1 felipe users         0 Nov 28 11:16 fort.8.pe027
-rw-r--r-- 1 felipe users         0 Nov 28 11:16 fort.8.pe028
-rw-r--r-- 1 felipe users         0 Nov 28 11:16 fort.8.pe029
-rw-r--r-- 1 felipe users         0 Nov 28 11:16 fort.8.pe030
-rw-r--r-- 1 felipe users         0 Nov 28 11:16 fort.8.pe031
-rw-r--r-- 1 felipe users         0 Nov 28 11:16 fort.8.pe032
-rw-r--r-- 1 felipe users         0 Nov 28 11:16 fort.8.pe033
-rw-r--r-- 1 felipe users         0 Nov 28 11:16 fort.8.pe034
-rw-r--r-- 1 felipe users         0 Nov 28 11:16 fort.8.pe035
-rw-r--r-- 1 felipe users         0 Nov 28 11:16 fort.8.pe036
-rw-r--r-- 1 felipe users         0 Nov 28 11:16 fort.8.pe037
-rw-r--r-- 1 felipe users         0 Nov 28 11:16 fort.8.pe038
-rw-r--r-- 1 felipe users         0 Nov 28 11:16 fort.8.pe039
-rw-r--r-- 1 felipe users         0 Nov 28 11:16 fort.8.pe040
-rw-r--r-- 1 felipe users         0 Nov 28 11:16 fort.8.pe041
-rw-r--r-- 1 felipe users         0 Nov 28 11:16 fort.8.pe042
-rw-r--r-- 1 felipe users         0 Nov 28 11:16 fort.8.pe043
-rw-r--r-- 1 felipe users         0 Nov 28 11:16 fort.8.pe044
-rw-r--r-- 1 felipe users         0 Nov 28 11:16 fort.8.pe045
-rw-r--r-- 1 felipe users         0 Nov 28 11:16 fort.8.pe046
-rw-r--r-- 1 felipe users         0 Nov 28 11:16 fort.8.pe047
-rw-r--r-- 1 felipe users         0 Nov 28 11:16 fort.8.pe048
-rw-r--r-- 1 felipe users         0 Nov 28 11:16 fort.8.pe049
-rw-r--r-- 1 felipe users         0 Nov 28 11:16 fort.8.pe050
-rw-r--r-- 1 felipe users         0 Nov 28 11:16 fort.8.pe051
-rw-r--r-- 1 felipe users         0 Nov 28 11:16 fort.8.pe052
-rw-r--r-- 1 felipe users         0 Nov 28 11:16 fort.8.pe053
-rw-r--r-- 1 felipe users         0 Nov 28 11:16 fort.8.pe054
-rw-r--r-- 1 felipe users         0 Nov 28 11:16 fort.8.pe055
-rw-r--r-- 1 felipe users         0 Nov 28 11:16 fort.8.pe056
-rw-r--r-- 1 felipe users         0 Nov 28 11:16 fort.8.pe057
-rw-r--r-- 1 felipe users         0 Nov 28 11:16 fort.8.pe058
-rw-r--r-- 1 felipe users         0 Nov 28 11:16 fort.8.pe059
-rw-r--r-- 1 felipe users         0 Nov 28 11:16 fort.8.pe060
-rw-r--r-- 1 felipe users         0 Nov 28 11:16 fort.8.pe061
-rw-r--r-- 1 felipe users         0 Nov 28 11:16 fort.8.pe062
-rw-r--r-- 1 felipe users         0 Nov 28 11:16 fort.8.pe063
-rw-r--r-- 1 felipe users         0 Nov 28 11:16 fort.8.pe064
-rw-r--r-- 1 felipe users         0 Nov 28 11:16 fort.8.pe065
-rw-r--r-- 1 felipe users         0 Nov 28 11:16 fort.8.pe066
-rw-r--r-- 1 felipe users         0 Nov 28 11:16 fort.8.pe067
-rw-r--r-- 1 felipe users         0 Nov 28 11:16 fort.8.pe068
-rw-r--r-- 1 felipe users         0 Nov 28 11:16 fort.8.pe069
-rw-r--r-- 1 felipe users         0 Nov 28 11:16 fort.8.pe070
-rw-r--r-- 1 felipe users         0 Nov 28 11:16 fort.8.pe071
-rw-r--r-- 1 felipe users         0 Nov 28 11:16 fort.8.pe072
-rw-r--r-- 1 felipe users         0 Nov 28 11:16 fort.8.pe073
-rw-r--r-- 1 felipe users         0 Nov 28 11:16 fort.8.pe074
-rw-r--r-- 1 felipe users         0 Nov 28 11:16 fort.8.pe075
-rw-r--r-- 1 felipe users         0 Nov 28 11:16 fort.8.pe076
-rw-r--r-- 1 felipe users         0 Nov 28 11:16 fort.8.pe077
-rw-r--r-- 1 felipe users         0 Nov 28 11:16 fort.8.pe078
-rw-r--r-- 1 felipe users         0 Nov 28 11:16 fort.8.pe079
-rw-r--r-- 1 felipe users         0 Nov 28 11:16 fort.8.pe080
-rw-r--r-- 1 felipe users         0 Nov 28 11:16 fort.8.pe081
-rw-r--r-- 1 felipe users         0 Nov 28 11:16 fort.8.pe082
-rw-r--r-- 1 felipe users         0 Nov 28 11:16 fort.8.pe083
-rw-r--r-- 1 felipe users         0 Nov 28 11:16 fort.8.pe084
-rw-r--r-- 1 felipe users         0 Nov 28 11:16 fort.8.pe085
-rw-r--r-- 1 felipe users         0 Nov 28 11:16 fort.8.pe086
-rw-r--r-- 1 felipe users         0 Nov 28 11:16 fort.8.pe087
-rw-r--r-- 1 felipe users         0 Nov 28 11:16 fort.8.pe088
-rw-r--r-- 1 felipe users         0 Nov 28 11:16 fort.8.pe089
-rw-r--r-- 1 felipe users         0 Nov 28 11:16 fort.8.pe090
-rw-r--r-- 1 felipe users         0 Nov 28 11:16 fort.8.pe091
-rw-r--r-- 1 felipe users         0 Nov 28 11:16 fort.8.pe092
-rw-r--r-- 1 felipe users         0 Nov 28 11:16 fort.8.pe093
-rw-r--r-- 1 felipe users         0 Nov 28 11:16 fort.8.pe094
-rw-r--r-- 1 felipe users         0 Nov 28 11:16 fort.8.pe095
-rw-r--r-- 1 felipe users         0 Nov 28 11:16 fort.8.pe096
-rw-r--r-- 1 felipe users         0 Nov 28 11:16 fort.8.pe097
-rw-r--r-- 1 felipe users         0 Nov 28 11:16 fort.8.pe098
-rw-r--r-- 1 felipe users         0 Nov 28 11:16 fort.8.pe099
-rw-r--r-- 1 felipe users         0 Nov 28 11:16 fort.8.pe100
-rw-r--r-- 1 felipe users         0 Nov 28 11:16 fort.8.pe101
-rw-r--r-- 1 felipe users         0 Nov 28 11:16 fort.8.pe102
-rw-r--r-- 1 felipe users         0 Nov 28 11:16 fort.8.pe103
-rw-r--r-- 1 felipe users         0 Nov 28 11:16 fort.8.pe104
-rw-r--r-- 1 felipe users         0 Nov 28 11:16 fort.8.pe105
-rw-r--r-- 1 felipe users         0 Nov 28 11:16 fort.8.pe106
-rw-r--r-- 1 felipe users         0 Nov 28 11:16 fort.8.pe107
-rw-r--r-- 1 felipe users         0 Nov 28 11:16 fort.8.pe108
-rw-r--r-- 1 felipe users         0 Nov 28 11:16 fort.8.pe109
-rw-r--r-- 1 felipe users         0 Nov 28 11:16 fort.8.pe110
-rw-r--r-- 1 felipe users         0 Nov 28 11:16 fort.8.pe111
-rw-r--r-- 1 felipe users 151519240 Nov 28 11:26 fort.8.pe112
-rw-r--r-- 1 felipe users 151519240 Nov 28 11:26 fort.8.pe113
-rw-r--r-- 1 felipe users 151519240 Nov 28 11:26 fort.8.pe114
-rw-r--r-- 1 felipe users 151519240 Nov 28 11:26 fort.8.pe115
-rw-r--r-- 1 felipe users 151519240 Nov 28 11:26 fort.8.pe116
-rw-r--r-- 1 felipe users 151519240 Nov 28 11:26 fort.8.pe117
-rw-r--r-- 1 felipe users 151519240 Nov 28 11:26 fort.8.pe118
-rw-r--r-- 1 felipe users 151519240 Nov 28 11:26 fort.8.pe119
-rw-r--r-- 1 felipe users 151519240 Nov 28 11:26 fort.8.pe120
-rw-r--r-- 1 felipe users 151519240 Nov 28 11:26 fort.8.pe121
-rw-r--r-- 1 felipe users 151519240 Nov 28 11:26 fort.8.pe122
-rw-r--r-- 1 felipe users 151519240 Nov 28 11:26 fort.8.pe123
-rw-r--r-- 1 felipe users 151519240 Nov 28 11:26 fort.8.pe124
-rw-r--r-- 1 felipe users 151519240 Nov 28 11:26 fort.8.pe125
-rw-r--r-- 1 felipe users 151519240 Nov 28 11:26 fort.8.pe126
-rw-r--r-- 1 felipe users 151519240 Nov 28 11:26 fort.8.pe127
-rw-r--r-- 1 felipe users 143037724 Nov 28 11:16 fort.9
-rw-r--r-- 1 felipe users 376715886 Nov 28 11:16 fort.98
-rw-r--r-- 1 felipe users       691 Nov 28 11:16 INPUT
-rwxr-xr-x 1 felipe users 104622352 Nov 28 11:16 Pproperties
file fort.98 saved as /home/felipe/Wide-Band-Gap/Ga2O3/18_HF/TETRA/GaO_TETRA_18HF_BAND_ERRATUM_DEF.f98
file fort.25 saved as /home/felipe/Wide-Band-Gap/Ga2O3/18_HF/TETRA/GaO_TETRA_18HF_BAND_ERRATUM_DEF.f25
file BAND.DAT saved as /home/felipe/Wide-Band-Gap/Ga2O3/18_HF/TETRA/GaO_TETRA_18HF_BAND_ERRATUM_DEF_dat.BAND
removing temporary directories /home/felipe/tmp/tmp_p64127_felipe from each node
